nqpoint: 101    
npath: 1      
segment_nqpoint:
- 101
reciprocal_lattice:
- [   0.46805859,   0.00000000,   0.00000000 ] # a*
- [   0.23402929,   0.40535063,   0.00000000 ] # b*
- [   0.00000000,   0.00000000,   0.06666667 ] # c*
natom: 2      
lattice:
- [     2.136484680000000,    -1.233500000000000,     0.000000000000000 ] # a
- [     0.000000000000000,     2.467000010000000,     0.000000000000000 ] # b
- [     0.000000000000000,     0.000000000000000,    15.000000000000000 ] # c
points:
- symbol: C # 1
  coordinates: [  0.333333305249818,  0.666666558718681,  0.500000000000000 ]
  mass: 12.010700
- symbol: C # 2
  coordinates: [  0.666666694750182,  0.333333441281319,  0.500000000000000 ]
  mass: 12.010700

phonon:
- q-position: [    0.0000000,    0.0000000,    0.0000000 ]
  distance:    0.0000000
  band:
  - # 1
    frequency:   -0.0004703628
    group_velocity: [     0.0000000,     0.0000000,     0.0000000 ]
    eigenvector:
    - # atom 1
      - [ -0.70639686339601,  0.00000000000000 ]
      - [ -0.03167761765609,  0.00000000000000 ]
      - [ -0.00000000540075,  0.00000000000000 ]
    - # atom 2
      - [ -0.70639686332530,  0.00000000000000 ]
      - [ -0.03167761683101,  0.00000000000000 ]
      - [ -0.00000000540075,  0.00000000000000 ]
  - # 2
    frequency:   -0.0000001647
    group_velocity: [     0.0000000,     0.0000000,     0.0000000 ]
    eigenvector:
    - # atom 1
      - [ -0.00000001079065,  0.00000000000000 ]
      - [  0.00000012007121,  0.00000000000000 ]
      - [  0.70710678118654,  0.00000000000000 ]
    - # atom 2
      - [ -0.00000001079065,  0.00000000000000 ]
      - [  0.00000012007121,  0.00000000000000 ]
      - [  0.70710678118654,  0.00000000000000 ]
  - # 3
    frequency:    0.0004703629
    group_velocity: [     0.0000000,     0.0000000,     0.0000000 ]
    eigenvector:
    - # atom 1
      - [ -0.03167761683101,  0.00000000000000 ]
      - [  0.70639686332529,  0.00000000000000 ]
      - [ -0.00000012043407,  0.00000000000000 ]
    - # atom 2
      - [ -0.03167761765609,  0.00000000000000 ]
      - [  0.70639686339600,  0.00000000000000 ]
      - [ -0.00000012043407,  0.00000000000000 ]
  - # 4
    frequency:   26.6677173074
    group_velocity: [     0.0000000,     0.0000000,     0.0000000 ]
    eigenvector:
    - # atom 1
      - [  0.00000000000000,  0.00000000000000 ]
      - [  0.00000000000000,  0.00000000000000 ]
      - [  0.70710678118655,  0.00000000000000 ]
    - # atom 2
      - [ -0.00000000000000,  0.00000000000000 ]
      - [  0.00000000000000,  0.00000000000000 ]
      - [ -0.70710678118655,  0.00000000000000 ]
  - # 5
    frequency:   47.0380777082
    group_velocity: [     0.0000000,     0.0000000,     0.0000000 ]
    eigenvector:
    - # atom 1
      - [ -0.13518098411762,  0.00000000000000 ]
      - [  0.69406491178754,  0.00000000000000 ]
      - [ -0.00000000000000,  0.00000000000000 ]
    - # atom 2
      - [  0.13518098331190,  0.00000000000000 ]
      - [ -0.69406491159630,  0.00000000000000 ]
      - [  0.00000000000000,  0.00000000000000 ]
  - # 6
    frequency:   47.0380777142
    group_velocity: [     0.0000000,     0.0000000,     0.0000000 ]
    eigenvector:
    - # atom 1
      - [ -0.69406491159630,  0.00000000000000 ]
      - [ -0.13518098331190,  0.00000000000000 ]
      - [  0.00000000000000,  0.00000000000000 ]
    - # atom 2
      - [  0.69406491178754,  0.00000000000000 ]
      - [  0.13518098411762,  0.00000000000000 ]
      - [ -0.00000000000000,  0.00000000000000 ]

- q-position: [    0.0050000,    0.0000000,    0.0000000 ]
  distance:    0.0023403
  band:
  - # 1
    frequency:   -0.0270882833
    group_velocity: [     0.0000000,     0.0000000,     0.0000000 ]
    eigenvector:
    - # atom 1
      - [ -0.00000000000000,  0.00000000000000 ]
      - [ -0.00000000000095,  0.00000000000021 ]
      - [ -0.67660311967951,  0.20544638823781 ]
    - # atom 2
      - [ -0.00000000000000, -0.00000000000000 ]
      - [ -0.00000000000095,  0.00000000000021 ]
      - [ -0.67660316979505,  0.20544622319062 ]
  - # 2
    frequency:    0.3314403226
    group_velocity: [   141.6058818,     0.0000000,     0.0000000 ]
    eigenvector:
    - # atom 1
      - [  0.00000008642161,  0.00000000000000 ]
      - [  0.69028378450715, -0.15332415603114 ]
      - [ -0.00000000000093,  0.00000000000028 ]
    - # atom 2
      - [  0.00000008561517,  0.00000000048482 ]
      - [  0.68975278697482, -0.15569551337235 ]
      - [ -0.00000000000093,  0.00000000000028 ]
  - # 3
    frequency:    0.5245310741
    group_velocity: [   224.1139032,     0.0000000,     0.0000000 ]
    eigenvector:
    - # atom 1
      - [  0.70710678120339,  0.00000000000000 ]
      - [ -0.00000008353798,  0.00000001874200 ]
      - [  0.00000000000000, -0.00000000000000 ]
    - # atom 2
      - [  0.70710260654789,  0.00242977145976 ]
      - [ -0.00000008430070,  0.00000001903743 ]
      - [  0.00000000000000, -0.00000000000000 ]
  - # 4
    frequency:   26.6667132614
    group_velocity: [    -0.8580579,     0.0000000,     0.0000000 ]
    eigenvector:
    - # atom 1
      - [ -0.00000000000000,  0.00000000000000 ]
      - [  0.00000000000000, -0.00000000000000 ]
      - [ -0.70129714340175,  0.09045615875406 ]
    - # atom 2
      - [ -0.00000000000000,  0.00000000000000 ]
      - [  0.00000000000000, -0.00000000000000 ]
      - [  0.70129716546716, -0.09045598768314 ]
  - # 5
    frequency:   47.0367269988
    group_velocity: [    -1.1542135,     0.0000000,     0.0000000 ]
    eigenvector:
    - # atom 1
      - [ -0.00000042602945,  0.00000000000000 ]
      - [  0.70638221713114,  0.03200255215644 ]
      - [  0.00000000000000, -0.00000000000000 ]
    - # atom 2
      - [  0.00000042520054,  0.00000000141803 ]
      - [ -0.70648802722685, -0.02957477575762 ]
      - [ -0.00000000000000,  0.00000000000000 ]
  - # 6
    frequency:   47.0386031812
    group_velocity: [     0.4488593,     0.0000000,     0.0000000 ]
    eigenvector:
    - # atom 1
      - [ -0.70710678116957,  0.00000000000000 ]
      - [ -0.00000042476535, -0.00000001927849 ]
      - [  0.00000000000000,  0.00000000000000 ]
    - # atom 2
      - [  0.70710260658146,  0.00242977145987 ]
      - [  0.00000042565659,  0.00000001782724 ]
      - [  0.00000000000000, -0.00000000000000 ]

- q-position: [    0.0100000,    0.0000000,    0.0000000 ]
  distance:    0.0046806
  band:
  - # 1
    frequency:   -0.0536177358
    group_velocity: [     0.0000000,     0.0000000,     0.0000000 ]
    eigenvector:
    - # atom 1
      - [ -0.00000000000000,  0.00000000000000 ]
      - [ -0.00000000000008,  0.00000000000003 ]
      - [ -0.64272969237331,  0.29478558740499 ]
    - # atom 2
      - [ -0.00000000000000, -0.00000000000000 ]
      - [ -0.00000000000008,  0.00000000000004 ]
      - [ -0.64273027021022,  0.29478432752692 ]
  - # 2
    frequency:    0.6627589184
    group_velocity: [   141.5282959,     0.0000000,     0.0000000 ]
    eigenvector:
    - # atom 1
      - [  0.00000002283985,  0.00000000000000 ]
      - [  0.64480248587587, -0.29022362788801 ]
      - [ -0.00000000000008,  0.00000000000003 ]
    - # atom 2
      - [  0.00000002209162,  0.00000000051252 ]
      - [  0.64279076379430, -0.29465239521267 ]
      - [ -0.00000000000008,  0.00000000000003 ]
  - # 3
    frequency:    1.0489445556
    group_velocity: [   224.0382798,     0.0000000,     0.0000000 ]
    eigenvector:
    - # atom 1
      - [  0.70710678120340,  0.00000000000000 ]
      - [ -0.00000001999944,  0.00000000938023 ]
      - [  0.00000000000000, -0.00000000000000 ]
    - # atom 2
      - [  0.70709006705267,  0.00486179510165 ]
      - [ -0.00000002076267,  0.00000000953449 ]
      - [  0.00000000000000, -0.00000000000000 ]
  - # 4
    frequency:   26.6637010341
    group_velocity: [    -1.7161922,     0.0000000,     0.0000000 ]
    eigenvector:
    - # atom 1
      - [ -0.00000000000000,  0.00000000000000 ]
      - [  0.00000000000000,  0.00000000000000 ]
      - [ -0.70710669536311,  0.00034838579065 ]
    - # atom 2
      - [ -0.00000000000000, -0.00000000000000 ]
      - [ -0.00000000000000,  0.00000000000000 ]
      - [  0.70710669604466, -0.00034699972148 ]
  - # 5
    frequency:   47.0326761992
    group_velocity: [    -2.3072911,     0.0000000,     0.0000000 ]
    eigenvector:
    - # atom 1
      - [ -0.00000010780548,  0.00000000000000 ]
      - [  0.70426550272829,  0.06332536372321 ]
      - [  0.00000000000000,  0.00000000000000 ]
    - # atom 2
      - [  0.00000010697954,  0.00000000065022 ]
      - [ -0.70468445797293, -0.05847918148846 ]
      - [ -0.00000000000000, -0.00000000000000 ]
  - # 6
    frequency:   47.0401767501
    group_velocity: [     0.8952983,     0.0000000,     0.0000000 ]
    eigenvector:
    - # atom 1
      - [ -0.70710678116968,  0.00000000000000 ]
      - [ -0.00000010654434, -0.00000000964870 ]
      - [ -0.00000000000000,  0.00000000000000 ]
    - # atom 2
      - [  0.70709006708638,  0.00486179510188 ]
      - [  0.00000010743592,  0.00000000893283 ]
      - [  0.00000000000000,  0.00000000000000 ]

- q-position: [    0.0150000,    0.0000000,    0.0000000 ]
  distance:    0.0070209
  band:
  - # 1
    frequency:   -0.0790107588
    group_velocity: [     0.0000000,     0.0000000,     0.0000000 ]
    eigenvector:
    - # atom 1
      - [ -0.00000000000000,  0.00000000000000 ]
      - [ -0.00000000000005,  0.00000000000004 ]
      - [ -0.44184205068531,  0.55206485329733 ]
    - # atom 2
      - [ -0.00000000000000, -0.00000000000000 ]
      - [ -0.00000000000005,  0.00000000000004 ]
      - [ -0.44184570080422,  0.55206193192506 ]
  - # 2
    frequency:    0.9938352455
    group_velocity: [   141.3988830,     0.0000000,     0.0000000 ]
    eigenvector:
    - # atom 1
      - [  0.00000001101017,  0.00000000000000 ]
      - [  0.58191783125152, -0.40171088813684 ]
      - [ -0.00000000000004,  0.00000000000005 ]
    - # atom 2
      - [  0.00000001034283,  0.00000000060543 ]
      - [  0.57773588941371, -0.40770239404151 ]
      - [ -0.00000000000004,  0.00000000000005 ]
  - # 3
    frequency:    1.5731223044
    group_velocity: [   223.9124493,     0.0000000,     0.0000000 ]
    eigenvector:
    - # atom 1
      - [  0.70710678120343, -0.00000000000000 ]
      - [ -0.00000000823226,  0.00000000626377 ]
      - [  0.00000000000000, -0.00000000000000 ]
    - # atom 2
      - [  0.70706911581453,  0.00729831743559 ]
      - [ -0.00000000899635,  0.00000000637388 ]
      - [  0.00000000000000, -0.00000000000000 ]
  - # 4
    frequency:   26.6586803577
    group_velocity: [    -2.5744787,     0.0000000,     0.0000000 ]
    eigenvector:
    - # atom 1
      - [  0.00000000000000,  0.00000000000000 ]
      - [  0.00000000000000,  0.00000000000000 ]
      - [ -0.67942821221507, -0.19590126198223 ]
    - # atom 2
      - [ -0.00000000000000, -0.00000000000000 ]
      - [  0.00000000000000,  0.00000000000000 ]
      - [  0.67942691694517,  0.19590575420438 ]
  - # 5
    frequency:   47.0259292963
    group_velocity: [    -3.4580980,     0.0000000,     0.0000000 ]
    eigenvector:
    - # atom 1
      - [  0.00000004887050,  0.00000000000000 ]
      - [ -0.70091766941626, -0.09335106171820 ]
      - [  0.00000000000000,  0.00000000000000 ]
    - # atom 2
      - [ -0.00000004804925, -0.00000000036979 ]
      - [  0.70184484536139,  0.08610350176278 ]
      - [ -0.00000000000000, -0.00000000000000 ]
  - # 6
    frequency:   47.0427899303
    group_velocity: [     1.3369032,     0.0000000,     0.0000000 ]
    eigenvector:
    - # atom 1
      - [ -0.70710678116967,  0.00000000000000 ]
      - [ -0.00000004761412, -0.00000000644297 ]
      - [  0.00000000000000,  0.00000000000000 ]
    - # atom 2
      - [  0.70706911584828,  0.00729831743594 ]
      - [  0.00000004850625,  0.00000000597655 ]
      - [ -0.00000000000000, -0.00000000000000 ]

- q-position: [    0.0200000,    0.0000000,    0.0000000 ]
  distance:    0.0093612
  band:
  - # 1
    frequency:   -0.1026493066
    group_velocity: [     0.0000000,     0.0000000,     0.0000000 ]
    eigenvector:
    - # atom 1
      - [  0.00000000000000,  0.00000000000000 ]
      - [  0.00000000000001, -0.00000000000001 ]
      - [ -0.52791678829042,  0.47042944703869 ]
    - # atom 2
      - [  0.00000000000000,  0.00000000000000 ]
      - [  0.00000000000001, -0.00000000000001 ]
      - [ -0.52792414714640,  0.47042118878697 ]
  - # 2
    frequency:    1.3245482232
    group_velocity: [   141.2177991,     0.0000000,     0.0000000 ]
    eigenvector:
    - # atom 1
      - [  0.00000000681858,  0.00000000000000 ]
      - [  0.51259883552376, -0.48707538820580 ]
      - [  0.00000000000001, -0.00000000000001 ]
    - # atom 2
      - [  0.00000000624109,  0.00000000068981 ]
      - [  0.50582630634553, -0.49410499676960 ]
      - [  0.00000000000001, -0.00000000000001 ]
  - # 3
    frequency:    2.0969469230
    group_velocity: [   223.7365276,     0.0000000,     0.0000000 ]
    eigenvector:
    - # atom 1
      - [  0.70710678120346, -0.00000000000000 ]
      - [ -0.00000000411339,  0.00000000470864 ]
      - [ -0.00000000000000,  0.00000000000000 ]
    - # atom 2
      - [  0.70703967478423,  0.00974157364618 ]
      - [ -0.00000000487867,  0.00000000479886 ]
      - [ -0.00000000000000,  0.00000000000000 ]
  - # 4
    frequency:   26.6516507877
    group_velocity: [    -3.4329928,     0.0000000,     0.0000000 ]
    eigenvector:
    - # atom 1
      - [ -0.00000000000000,  0.00000000000000 ]
      - [  0.00000000000000, -0.00000000000000 ]
      - [ -0.55479996890749, -0.43840277656539 ]
    - # atom 2
      - [ -0.00000000000000,  0.00000000000000 ]
      - [  0.00000000000000,  0.00000000000000 ]
      - [  0.55479311091175,  0.43841145523909 ]
  - # 5
    frequency:   47.0164929292
    group_velocity: [    -4.6055022,     0.0000000,     0.0000000 ]
    eigenvector:
    - # atom 1
      - [  0.00000002823807,  0.00000000000000 ]
      - [ -0.69657693542871, -0.12157538012524 ]
      - [  0.00000000000000, -0.00000000000000 ]
    - # atom 2
      - [ -0.00000002742292, -0.00000000021285 ]
      - [  0.69818881498319,  0.11194810676607 ]
      - [  0.00000000000000,  0.00000000000000 ]
  - # 6
    frequency:   47.0464285960
    group_velocity: [     1.7712732,     0.0000000,     0.0000000 ]
    eigenvector:
    - # atom 1
      - [ -0.70710678116964,  0.00000000000000 ]
      - [ -0.00000002698801, -0.00000000484326 ]
      - [  0.00000000000000, -0.00000000000000 ]
    - # atom 2
      - [  0.70703967481804,  0.00974157364665 ]
      - [  0.00000002788091,  0.00000000450485 ]
      - [  0.00000000000000,  0.00000000000000 ]

- q-position: [    0.0250000,    0.0000000,    0.0000000 ]
  distance:    0.0117015
  band:
  - # 1
    frequency:   -0.1238463674
    group_velocity: [     0.0000000,     0.0000000,     0.0000000 ]
    eigenvector:
    - # atom 1
      - [  0.00000000000000,  0.00000000000000 ]
      - [  0.00000000000001, -0.00000000000001 ]
      - [ -0.49103967221990, -0.50880255532591 ]
    - # atom 2
      - [  0.00000000000000,  0.00000000000000 ]
      - [  0.00000000000001, -0.00000000000001 ]
      - [ -0.49102416868181, -0.50881751716145 ]
  - # 2
    frequency:    1.6547770678
    group_velocity: [   140.9851683,     0.0000000,     0.0000000 ]
    eigenvector:
    - # atom 1
      - [  0.00000000483588,  0.00000000000000 ]
      - [  0.44408057642902, -0.55026579179029 ]
      - [  0.00000000000001,  0.00000000000001 ]
    - # atom 2
      - [  0.00000000434806,  0.00000000075595 ]
      - [  0.43449538620243, -0.55786535955612 ]
      - [  0.00000000000001,  0.00000000000001 ]
  - # 3
    frequency:    2.6203014288
    group_velocity: [   223.5107366,     0.0000000,     0.0000000 ]
    eigenvector:
    - # atom 1
      - [  0.70710678120349, -0.00000000000000 ]
      - [ -0.00000000220629,  0.00000000377805 ]
      - [ -0.00000000000000, -0.00000000000000 ]
    - # atom 2
      - [  0.70700163483341,  0.01219378197786 ]
      - [ -0.00000000297310,  0.00000000385807 ]
      - [ -0.00000000000000, -0.00000000000000 ]
  - # 4
    frequency:   26.6426117049
    group_velocity: [    -4.2918083,     0.0000000,     0.0000000 ]
    eigenvector:
    - # atom 1
      - [ -0.00000000000000,  0.00000000000000 ]
      - [  0.00000000000000,  0.00000000000000 ]
      - [ -0.70634088711799,  0.03290214560441 ]
    - # atom 2
      - [ -0.00000000000000, -0.00000000000000 ]
      - [ -0.00000000000000,  0.00000000000000 ]
      - [  0.70634188932470, -0.03288062324864 ]
  - # 5
    frequency:   47.0043763824
    group_velocity: [    -5.7483756,     0.0000000,     0.0000000 ]
    eigenvector:
    - # atom 1
      - [  0.00000001868315,  0.00000000000000 ]
      - [ -0.69152298207834, -0.14763456668869 ]
      - [ -0.00000000000000, -0.00000000000000 ]
    - # atom 2
      - [ -0.00000001787506, -0.00000000010692 ]
      - [  0.69397335844211,  0.13565020364415 ]
      - [  0.00000000000000, -0.00000000000000 ]
  - # 6
    frequency:   47.0510730241
    group_velocity: [     2.1960265,     0.0000000,     0.0000000 ]
    eigenvector:
    - # atom 1
      - [ -0.70710678116960,  0.00000000000000 ]
      - [ -0.00000001744063, -0.00000000388599 ]
      - [ -0.00000000000000,  0.00000000000000 ]
    - # atom 2
      - [  0.70700163486729,  0.01219378197845 ]
      - [  0.00000001833453,  0.00000000362700 ]
      - [  0.00000000000000, -0.00000000000000 ]

- q-position: [    0.0300000,    0.0000000,    0.0000000 ]
  distance:    0.0140418
  band:
  - # 1
    frequency:   -0.1418039835
    group_velocity: [     0.0000000,     0.0000000,     0.0000000 ]
    eigenvector:
    - # atom 1
      - [ -0.00000000000000,  0.00000000000000 ]
      - [ -0.00000000000000,  0.00000000000000 ]
      - [ -0.10674747828229,  0.69900284397159 ]
    - # atom 2
      - [ -0.00000000000000, -0.00000000000000 ]
      - [ -0.00000000000000,  0.00000000000000 ]
      - [ -0.10678415660202,  0.69899724169613 ]
  - # 2
    frequency:    1.9844013142
    group_velocity: [   140.7011408,     0.0000000,     0.0000000 ]
    eigenvector:
    - # atom 1
      - [  0.00000000372559,  0.00000000000000 ]
      - [  0.37998962572091, -0.59632867138901 ]
      - [ -0.00000000000000,  0.00000000000001 ]
    - # atom 2
      - [  0.00000000332261,  0.00000000080527 ]
      - [  0.36749081151250, -0.60411133367765 ]
      - [ -0.00000000000000,  0.00000000000001 ]
  - # 3
    frequency:    3.1430694400
    group_velocity: [   223.2353669,     0.0000000,     0.0000000 ]
    eigenvector:
    - # atom 1
      - [  0.70710678120354, -0.00000000000000 ]
      - [ -0.00000000116984,  0.00000000315975 ]
      - [  0.00000000000000, -0.00000000000000 ]
    - # atom 2
      - [  0.70695485589705,  0.01465713817724 ]
      - [ -0.00000000193854,  0.00000000323443 ]
      - [  0.00000000000000, -0.00000000000000 ]
  - # 4
    frequency:   26.6315623185
    group_velocity: [    -5.1509979,     0.0000000,     0.0000000 ]
    eigenvector:
    - # atom 1
      - [  0.00000000000000,  0.00000000000000 ]
      - [ -0.00000000000000,  0.00000000000000 ]
      - [  0.11313984054411,  0.69799668801625 ]
    - # atom 2
      - [  0.00000000000000, -0.00000000000000 ]
      - [ -0.00000000000000,  0.00000000000000 ]
      - [ -0.11310321471723, -0.69800262379208 ]
  - # 5
    frequency:   46.9895915743
    group_velocity: [    -6.8855951,     0.0000000,     0.0000000 ]
    eigenvector:
    - # atom 1
      - [  0.00000001348798,  0.00000000000000 ]
      - [ -0.68604069007233, -0.17131308061263 ]
      - [  0.00000000000000,  0.00000000000000 ]
    - # atom 2
      - [ -0.00000001268755, -0.00000000002793 ]
      - [  0.68945895235814,  0.15699156980333 ]
      - [  0.00000000000000,  0.00000000000000 ]
  - # 6
    frequency:   47.0566979461
    group_velocity: [     2.6088071,     0.0000000,     0.0000000 ]
    eigenvector:
    - # atom 1
      - [ -0.70710678116956,  0.00000000000000 ]
      - [ -0.00000001225391, -0.00000000324996 ]
      - [  0.00000000000000,  0.00000000000000 ]
    - # atom 2
      - [  0.70695485593103,  0.01465713817794 ]
      - [  0.00000001314904,  0.00000000304610 ]
      - [  0.00000000000000,  0.00000000000000 ]

- q-position: [    0.0350000,    0.0000000,    0.0000000 ]
  distance:    0.0163821
  band:
  - # 1
    frequency:   -0.1555447860
    group_velocity: [     0.0000000,     0.0000000,     0.0000000 ]
    eigenvector:
    - # atom 1
      - [ -0.00000000000000,  0.00000000000000 ]
      - [ -0.00000000000001,  0.00000000000002 ]
      - [ -0.34269068683429, -0.61851684953366 ]
    - # atom 2
      - [ -0.00000000000000, -0.00000000000000 ]
      - [ -0.00000000000001,  0.00000000000002 ]
      - [ -0.34263935933716, -0.61854528486847 ]
  - # 2
    frequency:    2.3133008851
    group_velocity: [   140.3658980,     0.0000000,     0.0000000 ]
    eigenvector:
    - # atom 1
      - [  0.00000000303054,  0.00000000000000 ]
      - [  0.32157098896928, -0.62975558673932 ]
      - [ -0.00000000000001, -0.00000000000002 ]
    - # atom 2
      - [  0.00000000270590,  0.00000000084128 ]
      - [  0.30612260496746, -0.63740799395039 ]
      - [ -0.00000000000001, -0.00000000000002 ]
  - # 3
    frequency:    3.6651353315
    group_velocity: [   222.9107739,     0.0000000,     0.0000000 ]
    eigenvector:
    - # atom 1
      - [  0.70710678120359, -0.00000000000000 ]
      - [ -0.00000000054422,  0.00000000271991 ]
      - [  0.00000000000000,  0.00000000000000 ]
    - # atom 2
      - [  0.70689916715921,  0.01713381001157 ]
      - [ -0.00000000131514,  0.00000000279201 ]
      - [  0.00000000000000,  0.00000000000000 ]
  - # 4
    frequency:   26.6185016702
    group_velocity: [    -6.0106320,     0.0000000,     0.0000000 ]
    eigenvector:
    - # atom 1
      - [  0.00000000000000,  0.00000000000000 ]
      - [ -0.00000000000000, -0.00000000000000 ]
      - [ -0.64652063596403,  0.28637574490983 ]
    - # atom 2
      - [  0.00000000000000,  0.00000000000000 ]
      - [  0.00000000000000, -0.00000000000000 ]
      - [  0.64654439802566, -0.28632209377140 ]
  - # 5
    frequency:   46.9721530449
    group_velocity: [    -8.0160442,     0.0000000,     0.0000000 ]
    eigenvector:
    - # atom 1
      - [  0.00000001035100,  0.00000000000000 ]
      - [ -0.68039083111791, -0.19253134018805 ]
      - [  0.00000000000000, -0.00000000000000 ]
    - # atom 2
      - [ -0.00000000955840,  0.00000000003447 ]
      - [  0.68488233171297,  0.17588687183377 ]
      - [ -0.00000000000000,  0.00000000000000 ]
  - # 6
    frequency:   47.0632726155
    group_velocity: [     3.0072904,     0.0000000,     0.0000000 ]
    eigenvector:
    - # atom 1
      - [ -0.70710678116950,  0.00000000000000 ]
      - [ -0.00000000912593, -0.00000000279750 ]
      - [  0.00000000000000, -0.00000000000000 ]
    - # atom 2
      - [  0.70689916719329,  0.01713381001239 ]
      - [  0.00000001002251,  0.00000000263491 ]
      - [ -0.00000000000000,  0.00000000000000 ]

- q-position: [    0.0400000,    0.0000000,    0.0000000 ]
  distance:    0.0187223
  band:
  - # 1
    frequency:   -0.1637877519
    group_velocity: [     0.0000000,     0.0000000,     0.0000000 ]
    eigenvector:
    - # atom 1
      - [  0.00000000000000,  0.00000000000000 ]
      - [  0.00000000000000, -0.00000000000000 ]
      - [ -0.37734967926952, -0.59800269192972 ]
    - # atom 2
      - [  0.00000000000000,  0.00000000000000 ]
      - [  0.00000000000000, -0.00000000000000 ]
      - [ -0.37727595549840, -0.59804920650626 ]
  - # 2
    frequency:    2.6413561659
    group_velocity: [   139.9796541,     0.0000000,     0.0000000 ]
    eigenvector:
    - # atom 1
      - [  0.00000000255999,  0.00000000000000 ]
      - [  0.26891252675322, -0.65397710428671 ]
      - [  0.00000000000000,  0.00000000000000 ]
    - # atom 2
      - [  0.00000000230697,  0.00000000086723 ]
      - [  0.25051110135664, -0.66124442388655 ]
      - [  0.00000000000000,  0.00000000000000 ]
  - # 3
    frequency:    4.1863843843
    group_velocity: [   222.5373767,     0.0000000,     0.0000000 ]
    eigenvector:
    - # atom 1
      - [  0.70710678120366, -0.00000000000000 ]
      - [ -0.00000000013757,  0.00000000239161 ]
      - [ -0.00000000000000, -0.00000000000000 ]
    - # atom 2
      - [  0.70683436728385,  0.01962593188197 ]
      - [ -0.00000000091107,  0.00000000246288 ]
      - [ -0.00000000000000, -0.00000000000000 ]
  - # 4
    frequency:   26.6034286394
    group_velocity: [    -6.8707789,     0.0000000,     0.0000000 ]
    eigenvector:
    - # atom 1
      - [  0.00000000000000,  0.00000000000000 ]
      - [ -0.00000000000000,  0.00000000000000 ]
      - [ -0.70559870382246, -0.04615700557952 ]
    - # atom 2
      - [  0.00000000000000, -0.00000000000000 ]
      - [ -0.00000000000000, -0.00000000000000 ]
      - [  0.70559300829211,  0.04624399041264 ]
  - # 5
    frequency:   46.9520779383
    group_velocity: [    -9.1386136,     0.0000000,     0.0000000 ]
    eigenvector:
    - # atom 1
      - [  0.00000000831106,  0.00000000000000 ]
      - [ -0.67479200175624, -0.21131908193480 ]
      - [  0.00000000000000,  0.00000000000000 ]
    - # atom 2
      - [ -0.00000000752617,  0.00000000008555 ]
      - [  0.68043989532777,  0.19235786654663 ]
      - [ -0.00000000000000,  0.00000000000000 ]
  - # 6
    frequency:   47.0707608888
    group_velocity: [     3.3891897,     0.0000000,     0.0000000 ]
    eigenvector:
    - # atom 1
      - [ -0.70710678116944,  0.00000000000000 ]
      - [ -0.00000000709525, -0.00000000245979 ]
      - [  0.00000000000000, -0.00000000000000 ]
    - # atom 2
      - [  0.70683436731806,  0.01962593188292 ]
      - [  0.00000000799351,  0.00000000232983 ]
      - [ -0.00000000000000,  0.00000000000000 ]

- q-position: [    0.0450000,    0.0000000,    0.0000000 ]
  distance:    0.0210626
  band:
  - # 1
    frequency:   -0.1646914966
    group_velocity: [     0.0000000,     0.0000000,     0.0000000 ]
    eigenvector:
    - # atom 1
      - [  0.00000000000000,  0.00000000000000 ]
      - [  0.00000000000000, -0.00000000000001 ]
      - [ -0.46664749123951,  0.53126275883019 ]
    - # atom 2
      - [  0.00000000000000,  0.00000000000000 ]
      - [  0.00000000000000, -0.00000000000001 ]
      - [ -0.46674022796294,  0.53118128694553 ]
  - # 2
    frequency:    2.9684480815
    group_velocity: [   139.5426559,     0.0000000,     0.0000000 ]
    eigenvector:
    - # atom 1
      - [  0.00000000222251,  0.00000000000000 ]
      - [  0.22155608581494, -0.67150048459726 ]
      - [  0.00000000000001, -0.00000000000001 ]
    - # atom 2
      - [  0.00000000203489,  0.00000000088569 ]
      - [  0.20021211928760, -0.67817041170666 ]
      - [  0.00000000000001, -0.00000000000001 ]
  - # 3
    frequency:    4.7067029342
    group_velocity: [   222.1156572,     0.0000000,     0.0000000 ]
    eigenvector:
    - # atom 1
      - [  0.70710678120373, -0.00000000000000 ]
      - [  0.00000000014190,  0.00000000213770 ]
      - [ -0.00000000000000,  0.00000000000000 ]
    - # atom 2
      - [  0.70676022469312,  0.02213559954996 ]
      - [ -0.00000000063452,  0.00000000220928 ]
      - [ -0.00000000000000,  0.00000000000000 ]
  - # 4
    frequency:   26.5863419484
    group_velocity: [    -7.7315042,     0.0000000,     0.0000000 ]
    eigenvector:
    - # atom 1
      - [ -0.00000000000000,  0.00000000000000 ]
      - [ -0.00000000000000,  0.00000000000000 ]
      - [ -0.60930249994228, -0.35881814832041 ]
    - # atom 2
      - [  0.00000000000000, -0.00000000000000 ]
      - [ -0.00000000000000, -0.00000000000000 ]
      - [  0.60923985089955,  0.35892451027464 ]
  - # 5
    frequency:   46.9293859845
    group_velocity: [   -10.2522032,     0.0000000,     0.0000000 ]
    eigenvector:
    - # atom 1
      - [  0.00000000690901,  0.00000000000000 ]
      - [ -0.66941053936001, -0.22779273433924 ]
      - [ -0.00000000000000, -0.00000000000000 ]
    - # atom 2
      - [ -0.00000000613141,  0.00000000012837 ]
      - [  0.67627871739228,  0.20651173423863 ]
      - [  0.00000000000000,  0.00000000000000 ]
  - # 6
    frequency:   47.0791213207
    group_velocity: [     3.7522619,     0.0000000,     0.0000000 ]
    eigenvector:
    - # atom 1
      - [ -0.70710678116937,  0.00000000000000 ]
      - [ -0.00000000570241, -0.00000000219861 ]
      - [ -0.00000000000000,  0.00000000000000 ]
    - # atom 2
      - [  0.70676022472746,  0.02213559955104 ]
      - [  0.00000000660257,  0.00000000209551 ]
      - [  0.00000000000000,  0.00000000000000 ]

- q-position: [    0.0500000,    0.0000000,    0.0000000 ]
  distance:    0.0234029
  band:
  - # 1
    frequency:   -0.1552170323
    group_velocity: [     0.0000000,     0.0000000,     0.0000000 ]
    eigenvector:
    - # atom 1
      - [  0.00000000000000,  0.00000000000000 ]
      - [  0.00000000000000, -0.00000000000000 ]
      - [ -0.21973606123508, -0.67209825427008 ]
    - # atom 2
      - [  0.00000000000000,  0.00000000000000 ]
      - [  0.00000000000000, -0.00000000000000 ]
      - [ -0.21957609284125, -0.67215053332759 ]
  - # 2
    frequency:    3.2944581731
    group_velocity: [   139.0551833,     0.0000000,     0.0000000 ]
    eigenvector:
    - # atom 1
      - [ -0.00000000196966,  0.00000000000000 ]
      - [ -0.17890379790370,  0.68410045393318 ]
      - [ -0.00000000000000, -0.00000000000000 ]
    - # atom 2
      - [ -0.00000000184192, -0.00000000089855 ]
      - [ -0.15463259392219,  0.68999185569175 ]
      - [ -0.00000000000000, -0.00000000000000 ]
  - # 3
    frequency:    5.2259785172
    group_velocity: [   221.6461594,     0.0000000,     0.0000000 ]
    eigenvector:
    - # atom 1
      - [  0.70710678120381, -0.00000000000000 ]
      - [  0.00000000034249,  0.00000000193587 ]
      - [ -0.00000000000000, -0.00000000000000 ]
    - # atom 2
      - [  0.70667647789519,  0.02466486499543 ]
      - [ -0.00000000043720,  0.00000000200857 ]
      - [ -0.00000000000000, -0.00000000000000 ]
  - # 4