1352
Time=10.00000000 pbc="T T F" Lattice="55.54860168 -32.07100000 0.00000000 0.00000000 64.14200026 0.00000000 0.00000000 0.00000000 15.00000000" energy=-12605.54938316 virial="223.89909869 0.00509705 0.00000000 0.00509705 223.89516228 0.00000000 0.00000000 0.00000000 -0.00000009" stress="0.00418934 0.00000010 0.00000000 0.00000010 0.00418926 0.00000000 0.00000000 0.00000000 0.00000000" Properties=species:S:1:pos:R:3:vel:R:3
C 0.71216160 1.23350024 7.50000000 0.00000001 0.00000000 0.00000000
C 1.42432308 -0.00000023 7.50000000 -0.00000002 -0.00000001 0.00000000
C 0.71216159 3.70050026 7.50000000 0.00000001 0.00000001 -0.00000000
C 1.42432306 2.46699978 7.50000000 -0.00000002 -0.00000000 -0.00000000
C 0.71216160 6.16750026 7.50000000 0.00000001 0.00000001 -0.00000000
C 1.42432306 4.93399979 7.50000000 -0.00000002 -0.00000000 -0.00000000
C 0.71216160 8.63450027 7.50000000 0.00000001 0.00000001 -0.00000000
C 1.42432306 7.40099980 7.50000000 -0.00000002 -0.00000001 0.00000000
C 0.71216160 11.10150028 7.50000000 0.00000001 0.00000001 -0.00000000
C 1.42432306 9.86799982 7.50000000 -0.00000002 -0.00000001 0.00000000
C 0.71216159 13.56850029 7.50000000 0.00000001 0.00000001 -0.00000000
C 1.42432306 12.33499982 7.50000000 -0.00000002 -0.00000000 0.00000000
C 0.71216159 16.03550031 7.50000000 0.00000001 0.00000001 -0.00000000
C 1.42432306 14.80199983 7.50000000 -0.00000002 -0.00000001 0.00000000
C 0.71216159 18.50250031 7.50000000 0.00000001 0.00000001 -0.00000000
C 1.42432306 17.26899984 7.50000000 -0.00000002 -0.00000001 0.00000000
C 0.71216159 20.96950032 7.50000000 0.00000001 0.00000001 -0.00000000
C 1.42432306 19.73599985 7.50000000 -0.00000002 -0.00000001 0.00000000
C 0.71216159 23.43650033 7.50000000 0.00000001 0.00000001 -0.00000000
C 1.42432306 22.20299986 7.50000000 -0.00000002 -0.00000001 0.00000000
C 0.71216159 25.90350034 7.50000000 0.00000001 0.00000001 -0.00000000
C 1.42432306 24.66999987 7.50000000 -0.00000002 -0.00000001 0.00000000
C 0.71216159 28.37050035 7.50000000 0.00000001 0.00000001 -0.00000000
C 1.42432306 27.13699988 7.50000000 -0.00000002 -0.00000001 0.00000000
C 0.71216159 30.83750037 7.50000000 0.00000001 0.00000001 -0.00000000
C 1.42432306 29.60399989 7.50000000 -0.00000002 -0.00000001 -0.00000000
C 0.71216159 33.30450038 7.50000000 0.00000001 0.00000001 -0.00000000
C 1.42432306 32.07099990 7.50000000 -0.00000002 -0.00000001 -0.00000000
C 0.71216159 35.77150038 7.50000000 0.00000001 0.00000001 0.00000000
C 1.42432306 34.53799991 7.50000000 -0.00000002 -0.00000001 0.00000000
C 0.71216159 38.23850039 7.50000000 0.00000001 0.00000001 -0.00000000
C 1.42432306 37.00499992 7.50000000 -0.00000002 -0.00000001 0.00000000
C 0.71216159 40.70550040 7.50000000 0.00000001 0.00000001 -0.00000000
C 1.42432306 39.47199993 7.50000000 -0.00000002 -0.00000001 0.00000000
C 0.71216159 43.17250041 7.50000000 0.00000001 0.00000001 -0.00000000
C 1.42432306 41.93899994 7.50000000 -0.00000002 -0.00000001 0.00000000
C 0.71216159 45.63950042 7.50000000 0.00000001 0.00000001 -0.00000000
C 1.42432306 44.40599995 7.50000000 -0.00000002 -0.00000001 0.00000000
C 0.71216159 48.10650043 7.50000000 0.00000001 0.00000001 -0.00000000
C 1.42432306 46.87299996 7.50000000 -0.00000002 -0.00000001 0.00000000
C 0.71216159 50.57350044 7.50000000 0.00000001 0.00000001 -0.00000000
C 1.42432306 49.33999997 7.50000000 -0.00000002 -0.00000001 0.00000000
C 0.71216159 53.04050045 7.50000000 0.00000001 0.00000001 -0.00000000
C 1.42432306 51.80699997 7.50000000 -0.00000002 -0.00000000 0.00000000
C 0.71216159 55.50750046 7.50000000 0.00000001 0.00000001 -0.00000000
C 1.42432306 54.27399998 7.50000000 -0.00000002 -0.00000001 0.00000000
C 0.71216160 57.97450047 7.50000000 0.00000001 0.00000001 -0.00000000
C 1.42432307 56.74100000 7.50000000 -0.00000002 -0.00000000 0.00000000
C 0.71216159 60.44150048 7.50000000 0.00000001 0.00000000 0.00000000
C 1.42432307 59.20800000 7.50000000 -0.00000002 -0.00000001 0.00000000
C 0.71216159 62.90850049 7.50000000 0.00000001 0.00000001 0.00000000
C 1.42432307 61.67500002 7.50000000 -0.00000002 -0.00000001 0.00000000
C 2.84864627 0.00000025 7.50000000 0.00000001 0.00000001 -0.00000000
C 3.56080777 -1.23350023 7.50000000 -0.00000001 -0.00000001 -0.00000000
C 2.84864628 2.46700025 7.50000000 0.00000002 0.00000001 -0.00000000
C 3.56080776 1.23349978 7.50000000 -0.00000001 -0.00000001 -0.00000000
C 2.84864628 4.93400026 7.50000000 0.00000001 0.00000001 0.00000000
C 3.56080775 3.70049980 7.50000000 -0.00000001 -0.00000001 0.00000000
C 2.84864628 7.40100028 7.50000000 0.00000001 0.00000001 0.00000000
C 3.56080775 6.16749980 7.50000000 -0.00000002 -0.00000001 0.00000000
C 2.84864628 9.86800028 7.50000000 0.00000001 0.00000001 0.00000000
C 3.56080776 8.63449981 7.50000000 -0.00000001 -0.00000001 0.00000000
C 2.84864628 12.33500029 7.50000000 0.00000001 0.00000001 0.00000000
C 3.56080775 11.10149982 7.50000000 -0.00000001 -0.00000001 0.00000000
C 2.84864628 14.80200030 7.50000000 0.00000001 0.00000001 0.00000000
C 3.56080775 13.56849984 7.50000000 -0.00000001 -0.00000001 0.00000000
C 2.84864628 17.26900032 7.50000000 0.00000001 0.00000001 0.00000000
C 3.56080776 16.03549984 7.50000000 -0.00000001 -0.00000001 0.00000000
C 2.84864628 19.73600032 7.50000000 0.00000001 0.00000001 0.00000000
C 3.56080776 18.50249985 7.50000000 -0.00000001 -0.00000001 0.00000000
C 2.84864628 22.20300033 7.50000000 0.00000001 0.00000001 0.00000000
C 3.56080776 20.96949986 7.50000000 -0.00000001 -0.00000001 0.00000000
C 2.84864628 24.67000034 7.50000000 0.00000001 0.00000001 0.00000000
C 3.56080776 23.43649987 7.50000000 -0.00000001 -0.00000001 0.00000000
C 2.84864628 27.13700035 7.50000000 0.00000001 0.00000001 0.00000000
C 3.56080776 25.90349988 7.50000000 -0.00000001 -0.00000001 0.00000000
C 2.84864628 29.60400037 7.50000000 0.00000001 0.00000001 0.00000000
C 3.56080776 28.37049989 7.50000000 -0.00000001 -0.00000001 0.00000000
C 2.84864628 32.07100037 7.50000000 0.00000001 0.00000001 -0.00000000
C 3.56080775 30.83749990 7.50000000 -0.00000001 -0.00000001 0.00000000
C 2.84864628 34.53800038 7.50000000 0.00000001 0.00000001 -0.00000000
C 3.56080775 33.30449991 7.50000000 -0.00000001 -0.00000001 -0.00000000
C 2.84864628 37.00500040 7.50000000 0.00000001 0.00000001 0.00000000
C 3.56080776 35.77149992 7.50000000 -0.00000001 -0.00000001 -0.00000000
C 2.84864628 39.47200041 7.50000000 0.00000001 0.00000001 0.00000000
C 3.56080776 38.23849993 7.50000000 -0.00000001 -0.00000001 -0.00000000
C 2.84864628 41.93900041 7.50000000 0.00000001 0.00000001 0.00000000
C 3.56080776 40.70549994 7.50000000 -0.00000001 -0.00000001 -0.00000000
C 2.84864628 44.40600042 7.50000000 0.00000001 0.00000001 0.00000000
C 3.56080776 43.17249995 7.50000000 -0.00000001 -0.00000001 0.00000000
C 2.84864628 46.87300043 7.50000000 0.00000001 0.00000001 0.00000000
C 3.56080776 45.63949996 7.50000000 -0.00000001 -0.00000001 -0.00000000
C 2.84864628 49.34000044 7.50000000 0.00000001 0.00000001 0.00000000
C 3.56080776 48.10649997 7.50000000 -0.00000001 -0.00000001 -0.00000000
C 2.84864628 51.80700046 7.50000000 0.00000001 0.00000001 0.00000000
C 3.56080776 50.57349997 7.50000000 -0.00000001 -0.00000001 -0.00000000
C 2.84864628 54.27400046 7.50000000 0.00000001 0.00000001 0.00000000
C 3.56080776 53.04049999 7.50000000 -0.00000001 -0.00000001 -0.00000000
C 2.84864628 56.74100046 7.50000000 0.00000001 0.00000001 0.00000000
C 3.56080776 55.50750000 7.50000000 -0.00000001 -0.00000001 -0.00000000
C 2.84864628 59.20800047 7.50000000 0.00000001 0.00000001 0.00000000
C 3.56080776 57.97450000 7.50000000 -0.00000001 -0.00000001 -0.00000000
C 2.84864627 61.67500049 7.50000000 0.00000001 0.00000001 0.00000000
C 3.56080775 60.44150001 7.50000000 -0.00000002 -0.00000001 -0.00000000
C 4.98513096 -1.23349975 7.50000000 0.00000001 0.00000001 -0.00000000
C 5.69729246 -2.46700023 7.50000000 -0.00000001 -0.00000001 -0.00000000
C 4.98513096 1.23350025 7.50000000 0.00000001 0.00000000 0.00000000
C 5.69729244 -0.00000022 7.50000000 -0.00000001 -0.00000001 0.00000000
C 4.98513097 3.70050027 7.50000000 0.00000002 0.00000001 0.00000000
C 5.69729244 2.46699979 7.50000000 -0.00000001 -0.00000000 0.00000000
C 4.98513097 6.16750027 7.50000000 0.00000001 0.00000001 -0.00000000
C 5.69729244 4.93399980 7.50000000 -0.00000001 -0.00000001 -0.00000000
C 4.98513097 8.63450029 7.50000000 0.00000001 0.00000001 -0.00000000
C 5.69729245 7.40099981 7.50000000 -0.00000001 -0.00000001 -0.00000000
C 4.98513097 11.10150030 7.50000000 0.00000002 0.00000001 -0.00000000
C 5.69729245 9.86799981 7.50000000 -0.00000001 -0.00000000 -0.00000000
C 4.98513097 13.56850030 7.50000000 0.00000002 0.00000001 -0.00000000
C 5.69729245 12.33499982 7.50000000 -0.00000001 -0.00000001 -0.00000000
C 4.98513097 16.03550031 7.50000000 0.00000001 0.00000001 -0.00000000
C 5.69729244 14.80199985 7.50000000 -0.00000001 -0.00000001 -0.00000000
C 4.98513097 18.50250033 7.50000000 0.00000001 0.00000001 -0.00000000
C 5.69729245 17.26899984 7.50000000 -0.00000001 -0.00000001 -0.00000000
C 4.98513097 20.96950034 7.50000000 0.00000001 0.00000001 -0.00000000
C 5.69729245 19.73599985 7.50000000 -0.00000001 -0.00000001 -0.00000000
C 4.98513097 23.43650035 7.50000000 0.00000002 0.00000001 -0.00000000
C 5.69729245 22.20299986 7.50000000 -0.00000001 -0.00000001 -0.00000000
C 4.98513097 25.90350036 7.50000000 0.00000002 0.00000001 -0.00000000
C 5.69729245 24.66999987 7.50000000 -0.00000001 -0.00000001 -0.00000000
C 4.98513097 28.37050037 7.50000000 0.00000001 0.00000001 0.00000000
C 5.69729245 27.13699988 7.50000000 -0.00000001 -0.00000001 -0.00000000
C 4.98513097 30.83750038 7.50000000 0.00000002 0.00000001 0.00000000
C 5.69729245 29.60399989 7.50000000 -0.00000001 -0.00000001 0.00000000
C 4.98513097 33.30450039 7.50000000 0.00000001 0.00000001 0.00000000
C 5.69729245 32.07099991 7.50000000 -0.00000001 -0.00000001 0.00000000
C 4.98513097 35.77150040 7.50000000 0.00000002 0.00000001 -0.00000000
C 5.69729245 34.53799992 7.50000000 -0.00000001 -0.00000001 0.00000000
C 4.98513097 38.23850041 7.50000000 0.00000001 0.00000001 0.00000000
C 5.69729245 37.00499993 7.50000000 -0.00000001 -0.00000001 -0.00000000
C 4.98513097 40.70550042 7.50000000 0.00000001 0.00000001 0.00000000
C 5.69729245 39.47199994 7.50000000 -0.00000001 -0.00000001 0.00000000
C 4.98513097 43.17250043 7.50000000 0.00000002 0.00000001 -0.00000000
C 5.69729245 41.93899994 7.50000000 -0.00000001 -0.00000001 -0.00000000
C 4.98513097 45.63950044 7.50000000 0.00000002 0.00000001 0.00000000
C 5.69729245 44.40599995 7.50000000 -0.00000001 -0.00000001 -0.00000000
C 4.98513097 48.10650045 7.50000000 0.00000001 0.00000001 0.00000000
C 5.69729245 46.87299996 7.50000000 -0.00000001 -0.00000001 -0.00000000
C 4.98513097 50.57350046 7.50000000 0.00000001 0.00000001 0.00000000
C 5.69729245 49.33999997 7.50000000 -0.00000001 -0.00000001 -0.00000000
C 4.98513096 53.04050047 7.50000000 0.00000001 0.00000001 -0.00000000
C 5.69729245 51.80699998 7.50000000 -0.00000001 -0.00000001 -0.00000000
C 4.98513096 55.50750047 7.50000000 0.00000001 0.00000001 0.00000000
C 5.69729245 54.27399999 7.50000000 -0.00000001 -0.00000001 -0.00000000
C 4.98513096 57.97450048 7.50000000 0.00000001 0.00000001 -0.00000000
C 5.69729244 56.74100000 7.50000000 -0.00000001 -0.00000001 -0.00000000
C 4.98513097 60.44150048 7.50000000 0.00000002 0.00000001 -0.00000000
C 5.69729244 59.20800001 7.50000000 -0.00000001 -0.00000001 0.00000000
C 7.12161563 -2.46699975 7.50000000 0.00000001 0.00000001 0.00000000
C 7.83377713 -3.70050023 7.50000000 -0.00000001 -0.00000001 0.00000000
C 7.12161564 0.00000026 7.50000000 0.00000001 0.00000001 0.00000000
C 7.83377712 -1.23350022 7.50000000 -0.00000002 -0.00000001 -0.00000000
C 7.12161564 2.46700027 7.50000000 0.00000001 0.00000001 -0.00000000
C 7.83377712 1.23349979 7.50000000 -0.00000001 -0.00000001 -0.00000000
C 7.12161564 4.93400027 7.50000000 0.00000001 0.00000001 -0.00000000
C 7.83377712 3.70049980 7.50000000 -0.00000001 -0.00000001 -0.00000000
C 7.12161564 7.40100028 7.50000000 0.00000001 0.00000001 -0.00000000
C 7.83377712 6.16749981 7.50000000 -0.00000001 -0.00000001 -0.00000000
C 7.12161564 9.86800029 7.50000000 0.00000001 0.00000001 -0.00000000
C 7.83377712 8.63449982 7.50000000 -0.00000001 -0.00000001 0.00000000
C 7.12161564 12.33500031 7.50000000 0.00000001 0.00000001 -0.00000000
C 7.83377712 11.10149983 7.50000000 -0.00000001 -0.00000001 -0.00000000
C 7.12161564 14.80200031 7.50000000 0.00000001 0.00000001 -0.00000000
C 7.83377712 13.56849983 7.50000000 -0.00000001 -0.00000001 0.00000000
C 7.12161564 17.26900033 7.50000000 0.00000001 0.00000001 -0.00000000
C 7.83377712 16.03549985 7.50000000 -0.00000001 -0.00000001 0.00000000
C 7.12161564 19.73600033 7.50000000 0.00000001 0.00000001 -0.00000000
C 7.83377712 18.50249986 7.50000000 -0.00000001 -0.00000001 0.00000000
C 7.12161564 22.20300035 7.50000000 0.00000001 0.00000001 -0.00000000
C 7.83377712 20.96949987 7.50000000 -0.00000001 -0.00000001 0.00000000
C 7.12161564 24.67000036 7.50000000 0.00000001 0.00000001 -0.00000000
C 7.83377712 23.43649987 7.50000000 -0.00000001 -0.00000001 0.00000000
C 7.12161564 27.13700037 7.50000000 0.00000001 0.00000001 -0.00000000
C 7.83377712 25.90349988 7.50000000 -0.00000001 -0.00000001 0.00000000
C 7.12161564 29.60400038 7.50000000 0.00000001 0.00000001 -0.00000000
C 7.83377712 28.37049989 7.50000000 -0.00000001 -0.00000001 -0.00000000
C 7.12161564 32.07100038 7.50000000 0.00000001 0.00000001 -0.00000000
C 7.83377712 30.83749991 7.50000000 -0.00000001 -0.00000001 -0.00000000
C 7.12161564 34.53800040 7.50000000 0.00000001 0.00000001 0.00000000
C 7.83377712 33.30449992 7.50000000 -0.00000001 -0.00000001 -0.00000000
C 7.12161564 37.00500041 7.50000000 0.00000001 0.00000001 0.00000000
C 7.83377712 35.77149993 7.50000000 -0.00000001 -0.00000001 -0.00000000
C 7.12161564 39.47200041 7.50000000 0.00000001 0.00000001 0.00000000
C 7.83377712 38.23849994 7.50000000 -0.00000001 -0.00000001 -0.00000000
C 7.12161564 41.93900043 7.50000000 0.00000001 0.00000001 0.00000000
C 7.83377712 40.70549995 7.50000000 -0.00000001 -0.00000001 0.00000000
C 7.12161564 44.40600044 7.50000000 0.00000001 0.00000001 0.00000000
C 7.83377712 43.17249995 7.50000000 -0.00000001 -0.00000001 0.00000000
C 7.12161564 46.87300045 7.50000000 0.00000001 0.00000001 0.00000000
C 7.83377712 45.63949996 7.50000000 -0.00000001 -0.00000001 -0.00000000
C 7.12161564 49.34000046 7.50000000 0.00000001 0.00000001 0.00000000
C 7.83377712 48.10649997 7.50000000 -0.00000001 -0.00000001 -0.00000000
C 7.12161564 51.80700047 7.50000000 0.00000001 0.00000001 0.00000000
C 7.83377712 50.57349998 7.50000000 -0.00000001 -0.00000001 -0.00000000
C 7.12161564 54.27400047 7.50000000 0.00000001 0.00000001 -0.00000000
C 7.83377713 53.04049999 7.50000000 -0.00000001 -0.00000001 -0.00000000
C 7.12161564 56.74100048 7.50000000 0.00000001 0.00000001 0.00000000
C 7.83377712 55.50750000 7.50000000 -0.00000002 -0.00000001 0.00000000
C 7.12161563 59.20800050 7.50000000 0.00000001 0.00000001 0.00000000
C 7.83377713 57.97450001 7.50000000 -0.00000001 -0.00000001 0.00000000
C 9.25810031 -3.70049976 7.50000000 0.00000001 0.00000000 0.00000000
C 9.97026181 -4.93400022 7.50000000 -0.00000001 -0.00000000 -0.00000000
C 9.25810032 -1.23349975 7.50000000 0.00000001 0.00000001 -0.00000000
C 9.97026180 -2.46700023 7.50000000 -0.00000001 -0.00000001 -0.00000000
C 9.25810032 1.23350026 7.50000000 0.00000001 0.00000001 -0.00000000
C 9.97026180 -0.00000022 7.50000000 -0.00000001 -0.00000001 -0.00000000
C 9.25810032 3.70050027 7.50000000 0.00000001 0.00000001 -0.00000000
C 9.97026180 2.46699979 7.50000000 -0.00000001 -0.00000001 0.00000000
C 9.25810032 6.16750028 7.50000000 0.00000001 0.00000001 0.00000000
C 9.97026180 4.93399981 7.50000000 -0.00000001 -0.00000001 0.00000000
C 9.25810032 8.63450029 7.50000001 0.00000001 0.00000001 -0.00000000
C 9.97026180 7.40099982 7.50000001 -0.00000001 -0.00000001 0.00000000
C 9.25810032 11.10150030 7.50000001 0.00000001 0.00000001 -0.00000000
C 9.97026180 9.86799983 7.50000002 -0.00000001 -0.00000001 0.00000000
C 9.25810032 13.56850031 7.50000002 0.00000001 0.00000001 -0.00000000
C 9.97026180 12.33499984 7.50000004 -0.00000001 -0.00000001 0.00000000
C 9.25810032 16.03550032 7.50000002 0.00000001 0.00000001 -0.00000000
C 9.97026180 14.80199985 7.50000005 -0.00000001 -0.00000001 0.00000000
C 9.25810032 18.50250034 7.50000002 0.00000001 0.00000001 -0.00000000
C 9.97026180 17.26899985 7.50000006 -0.00000001 -0.00000001 0.00000000
C 9.25810032 20.96950034 7.50000001 0.00000001 0.00000001 -0.00000000
C 9.97026180 19.73599987 7.50000005 -0.00000001 -0.00000001 0.00000000
C 9.25810032 23.43650036 7.50000001 0.00000001 0.00000001 -0.00000000
C 9.97026180 22.20299987 7.50000003 -0.00000001 -0.00000001 0.00000000
C 9.25810032 25.90350037 7.50000001 0.00000001 0.00000001 -0.00000000
C 9.97026181 24.66999988 7.50000002 -0.00000001 -0.00000001 0.00000000
C 9.25810032 28.37050038 7.50000000 0.00000001 0.00000001 -0.00000000
C 9.97026180 27.13699989 7.50000001 -0.00000001 -0.00000001 0.00000000
C 9.25810032 30.83750039 7.50000000 0.00000001 0.00000001 -0.00000000
C 9.97026180 29.60399990 7.50000000 -0.00000001 -0.00000001 0.00000000
C 9.25810032 33.30450040 7.50000000 0.00000001 0.00000001 -0.00000000
C 9.97026180 32.07099992 7.50000000 -0.00000001 -0.00000001 0.00000000
C 9.25810032 35.77150041 7.50000000 0.00000001 0.00000001 -0.00000000
C 9.97026180 34.53799993 7.50000000 -0.00000001 -0.00000001 -0.00000000
C 9.25810032 38.23850042 7.50000000 0.00000001 0.00000001 -0.00000000
C 9.97026180 37.00499994 7.50000000 -0.00000001 -0.00000001 0.00000000
C 9.25810032 40.70550043 7.50000000 0.00000001 0.00000001 -0.00000000
C 9.97026180 39.47199995 7.50000000 -0.00000001 -0.00000001 -0.00000000
C 9.25810032 43.17250043 7.50000000 0.00000001 0.00000001 -0.00000000
C 9.97026180 41.93899996 7.50000000 -0.00000001 -0.00000001 -0.00000000
C 9.25810032 45.63950045 7.50000000 0.00000001 0.00000001 -0.00000000
C 9.97026180 44.40599997 7.50000000 -0.00000001 -0.00000001 -0.00000000
C 9.25810032 48.10650046 7.50000000 0.00000001 0.00000001 0.00000000
C 9.97026180 46.87299997 7.50000000 -0.00000001 -0.00000001 0.00000000
C 9.25810032 50.57350047 7.50000000 0.00000001 0.00000001 0.00000000
C 9.97026180 49.33999998 7.50000000 -0.00000001 -0.00000001 0.00000000
C 9.25810032 53.04050047 7.50000000 0.00000001 0.00000001 0.00000000
C 9.97026181 51.80699999 7.50000000 -0.00000001 -0.00000001 0.00000000
C 9.25810032 55.50750049 7.50000000 0.00000001 0.00000001 0.00000000
C 9.97026180 54.27400000 7.50000000 -0.00000002 -0.00000001 -0.00000000
C 9.25810031 57.97450050 7.50000000 0.00000001 0.00000001 -0.00000000
C 9.97026181 56.74100001 7.50000000 -0.00000001 -0.00000001 -0.00000000
C 11.39458499 -4.93399976 7.50000000 0.00000001 0.00000001 -0.00000000
C 12.10674649 -6.16750023 7.50000000 -0.00000001 -0.00000000 0.00000000
C 11.39458500 -2.46699975 7.50000000 0.00000001 0.00000001 -0.00000000
C 12.10674648 -3.70050023 7.50000000 -0.00000002 -0.00000001 0.00000000
C 11.39458500 0.00000026 7.50000000 0.00000001 0.00000001 0.00000000
C 12.10674648 -1.23350021 7.50000000 -0.00000001 -0.00000000 0.00000000
C 11.39458500 2.46700027 7.50000000 0.00000001 0.00000001 0.00000000
C 12.10674648 1.23349980 7.50000000 -0.00000001 -0.00000001 0.00000000
C 11.39458500 4.93400028 7.50000001 0.00000001 0.00000001 0.00000000
C 12.10674648 3.70049980 7.50000001 -0.00000001 -0.00000001 -0.00000000
C 11.39458500 7.40100030 7.50000003 0.00000001 0.00000001 0.00000000
C 12.10674648 6.16749982 7.50000001 -0.00000001 -0.00000001 -0.00000000
C 11.39458500 9.86800031 7.50000005 0.00000001 0.00000001 0.00000000
C 12.10674648 8.63449982 7.50000002 -0.00000001 -0.00000001 -0.00000000
C 11.39458500 12.33500031 7.50000009 0.00000001 0.00000001 0.00000000
C 12.10674648 11.10149984 7.50000004 -0.00000001 -0.00000001 -0.00000000
C 11.39458500 14.80200032 7.50000012 0.00000001 0.00000001 -0.00000000
C 12.10674648 13.56849986 7.50000006 -0.00000001 -0.00000001 -0.00000001
C 11.39458500 17.26900034 7.50000012 0.00000001 0.00000001 -0.00000000
C 12.10674648 16.03549985 7.50000006 -0.00000001 -0.00000001 -0.00000001
C 11.39458500 19.73600035 7.50000011 0.00000001 0.00000001 -0.00000000
C 12.10674648 18.50249986 7.50000005 -0.00000001 -0.00000001 -0.00000001
C 11.39458500 22.20300035 7.50000007 0.00000001 0.00000001 -0.00000000
C 12.10674648 20.96949987 7.50000004 -0.00000001 -0.00000001 -0.00000000
C 11.39458500 24.67000036 7.50000004 0.00000001 0.00000001 -0.00000000
C 12.10674648 23.43649989 7.50000002 -0.00000001 -0.00000001 -0.00000000
C 11.39458500 27.13700038 7.50000002 0.00000001 0.00000001 -0.00000000
C 12.10674648 25.90349989 7.50000001 -0.00000001 -0.00000001 -0.00000000
C 11.39458500 29.60400039 7.50000001 0.00000001 0.00000001 -0.00000000
C 12.10674648 28.37049990 7.50000000 -0.00000001 -0.00000001 -0.00000000
C 11.39458500 32.07100040 7.50000000 0.00000001 0.00000001 0.00000000
C 12.10674648 30.83749992 7.50000000 -0.00000001 -0.00000001 0.00000000
C 11.39458500 34.53800041 7.50000000 0.00000001 0.00000001 0.00000000
C 12.10674648 33.30449993 7.50000000 -0.00000001 -0.00000001 0.00000000
C 11.39458500 37.00500042 7.50000000 0.00000001 0.00000001 0.00000000
C 12.10674648 35.77149994 7.50000000 -0.00000001 -0.00000001 0.00000000
C 11.39458500 39.47200043 7.50000000 0.00000001 0.00000001 0.00000000
C 12.10674648 38.23849995 7.50000000 -0.00000001 -0.00000001 0.00000000
C 11.39458500 41.93900044 7.50000000 0.00000001 0.00000001 -0.00000000
C 12.10674648 40.70549996 7.50000000 -0.00000001 -0.00000001 0.00000000
C 11.39458500 44.40600044 7.50000000 0.00000001 0.00000001 0.00000000
C 12.10674648 43.17249997 7.50000000 -0.00000001 -0.00000001 -0.00000000
C 11.39458500 46.87300046 7.50000000 0.00000001 0.00000001 0.00000000
C 12.10674648 45.63949998 7.50000000 -0.00000001 -0.00000001 0.00000000
C 11.39458500 49.34000047 7.50000000 0.00000001 0.00000001 -0.00000000
C 12.10674648 48.10649998 7.50000000 -0.00000001 -0.00000001 0.00000000
C 11.39458500 51.80700048 7.50000000 0.00000001 0.00000001 -0.00000000
C 12.10674649 50.57349999 7.50000000 -0.00000001 -0.00000001 0.00000000
C 11.39458500 54.27400048 7.50000000 0.00000001 0.00000001 -0.00000000
C 12.10674648 53.04050000 7.50000000 -0.00000002 -0.00000001 0.00000000
C 11.39458499 56.74100050 7.50000000 0.00000001 0.00000001 -0.00000000
C 12.10674649 55.50750001 7.50000000 -0.00000001 -0.00000001 -0.00000000
C 13.53106967 -6.16749975 7.50000000 0.00000001 0.00000001 0.00000000
C 14.24323117 -7.40100023 7.50000000 -0.00000001 -0.00000001 -0.00000000
C 13.53106968 -3.70049975 7.50000000 0.00000002 0.00000001 0.00000000
C 14.24323116 -4.93400022 7.50000000 -0.00000002 -0.00000001 -0.00000000
C 13.53106968 -1.23349973 7.50000000 0.00000001 0.00000001 0.00000000
C 14.24323116 -2.46700021 7.50000000 -0.00000001 -0.00000001 -0.00000000
C 13.53106968 1.23350027 7.50000000 0.00000001 0.00000001 -0.00000000
C 14.24323116 -0.00000020 7.50000000 -0.00000001 -0.00000001 -0.00000000
C 13.53106968 3.70050028 7.49999999 0.00000001 0.00000001 -0.00000000
C 14.24323116 2.46699981 7.49999999 -0.00000001 -0.00000001 -0.00000000
C 13.53106968 6.16750029 7.49999996 0.00000001 0.00000001 0.00000000
C 14.24323116 4.93399982 7.49999994 -0.00000001 -0.00000001 -0.00000000
C 13.53106968 8.63450031 7.49999999 0.00000001 0.00000001 0.00000001
C 14.24323116 7.40099982 7.49999993 -0.00000001 -0.00000001 0.00000000
C 13.53106968 11.10150032 7.49999997 0.00000001 0.00000001 0.00000003
C 14.24323116 9.86799984 7.49999984 -0.00000001 -0.00000001 0.00000000
C 13.53106968 13.56850032 7.49999994 0.00000001 0.00000001 0.00000004
C 14.24323116 12.33499985 7.49999968 -0.00000001 -0.00000001 -0.00000000
C 13.53106968 16.03550033 7.49999995 0.00000001 0.00000001 0.00000005
C 14.24323116 14.80199986 7.49999955 -0.00000001 -0.00000001 -0.00000001
C 13.53106968 18.50250035 7.49999997 0.00000001 0.00000001 0.00000005
C 14.24323116 17.26899986 7.49999949 -0.00000001 -0.00000001 -0.00000002
C 13.53106968 20.96950036 7.49999997 0.00000001 0.00000001 0.00000004
C 14.24323116 19.73599987 7.49999953 -0.00000001 -0.00000001 -0.00000002
C 13.53106968 23.43650037 7.50000001 0.00000001 0.00000001 0.00000003
C 14.24323116 22.20299988 7.49999967 -0.00000001 -0.00000001 -0.00000002
C 13.53106968 25.90350037 7.50000001 0.00000001 0.00000001 0.00000001
C 14.24323116 24.66999990 7.49999982 -0.00000001 -0.00000001 -0.00000001
C 13.53106968 28.37050039 7.49999997 0.00000001 0.00000001 0.00000000
C 14.24323116 27.13699991 7.49999989 -0.00000001 -0.00000001 -0.00000001
C 13.53106968 30.83750039 7.50000000 0.00000001 0.00000001 0.00000000
C 14.24323116 29.60399991 7.49999996 -0.00000001 -0.00000001 -0.00000000
C 13.53106968 33.30450041 7.50000000 0.00000001 0.00000001 0.00000000
C 14.24323116 32.07099993 7.49999999 -0.00000001 -0.00000001 -0.00000000
C 13.53106968 35.77150042 7.50000000 0.00000001 0.00000001 0.00000000
C 14.24323116 34.53799993 7.50000000 -0.00000001 -0.00000001 -0.00000000
C 13.53106968 38.23850043 7.50000000 0.00000001 0.00000001 -0.00000000
C 14.24323116 37.00499995 7.50000000 -0.00000001 -0.00000001 -0.00000000
C 13.53106968 40.70550044 7.50000000 0.00000001 0.00000001 0.00000000
C 14.24323116 39.47199996 7.50000000 -0.00000001 -0.00000001 -0.00000000
C 13.53106968 43.17250045 7.50000000 0.00000001 0.00000001 0.00000000
C 14.24323116 41.93899997 7.50000000 -0.00000001 -0.00000001 -0.00000000
C 13.53106968 45.63950046 7.50000000 0.00000001 0.00000001 0.00000000
C 14.24323116 44.40599998 7.50000000 -0.00000001 -0.00000001 -0.00000000
C 13.53106968 48.10650046 7.50000000 0.00000001 0.00000001 -0.00000000
C 14.24323116 46.87299999 7.50000000 -0.00000001 -0.00000001 -0.00000000
C 13.53106968 50.57350048 7.50000000 0.00000001 0.00000001 -0.00000000
C 14.24323117 49.34000000 7.50000000 -0.00000001 -0.00000001 -0.00000000
C 13.53106968 53.04050049 7.50000000 0.00000001 0.00000001 0.00000000
C 14.24323116 51.80700000 7.50000000 -0.00000002 -0.00000001 0.00000000
C 13.53106967 55.50750050 7.50000000 0.00000001 0.00000001 0.00000000
C 14.24323117 54.27400001 7.50000000 -0.00000001 -0.00000001 0.00000000
C 15.66755435 -7.40099976 7.50000000 0.00000001 0.00000001 -0.00000000
C 16.37971585 -8.63450023 7.50000000 -0.00000001 -0.00000000 0.00000000
C 15.66755436 -4.93399975 7.50000000 0.00000001 0.00000001 -0.00000000
C 16.37971584 -6.16750023 7.50000000 -0.00000002 -0.00000001 -0.00000000
C 15.66755436 -2.46699974 7.50000000 0.00000001 0.00000001 -0.00000000
C 16.37971584 -3.70050021 7.50000000 -0.00000001 -0.00000000 -0.00000000
C 15.66755436 0.00000027 7.50000000 0.00000001 0.00000001 -0.00000000
C 16.37971584 -1.23350021 7.50000000 -0.00000001 -0.00000001 0.00000000
C 15.66755436 2.46700028 7.49999997 0.00000001 0.00000001 -0.00000000
C 16.37971584 1.23349980 7.49999999 -0.00000001 -0.00000001 0.00000000
C 15.66755436 4.93400029 7.49999988 0.00000001 0.00000001 -0.00000001
C 16.37971584 3.70049981 7.49999995 -0.00000001 -0.00000001 0.00000000
C 15.66755436 7.40100030 7.49999970 0.00000001 0.00000001 -0.00000001
C 16.37971584 6.16749983 7.49999987 -0.00000001 -0.00000001 0.00000001
C 15.66755436 9.86800031 7.49999935 0.00000001 0.00000001 -0.00000001
C 16.37971584 8.63449984 7.49999971 -0.00000001 -0.00000001 0.00000003
C 15.66755436 12.33500032 7.49999890 0.00000001 0.00000001 -0.00000001
C 16.37971584 11.10149984 7.49999948 -0.00000001 -0.00000001 0.00000006
C 15.66755436 14.80200033 7.49999861 0.00000001 0.00000001 0.00000001
C 16.37971584 13.56849986 7.49999927 -0.00000001 -0.00000001 0.00000009
C 15.66755436 17.26900035 7.49999850 0.00000001 0.00000001 0.00000003
C 16.37971584 16.03549986 7.49999919 -0.00000001 -0.00000001 0.00000011
C 15.66755436 19.73600036 7.49999874 0.00000001 0.00000001 0.00000003
C 16.37971584 18.50249987 7.49999929 -0.00000001 -0.00000001 0.00000009
C 15.66755436 22.20300037 7.49999910 0.00000001 0.00000001 0.00000003
C 16.37971584 20.96949988 7.49999951 -0.00000001 -0.00000001 0.00000006
C 15.66755436 24.67000038 7.49999952 0.00000001 0.00000001 0.00000002
C 16.37971584 23.43649989 7.49999973 -0.00000001 -0.00000001 0.00000003
C 15.66755436 27.13700038 7.49999980 0.00000001 0.00000001 0.00000001
C 16.37971584 25.90349990 7.49999988 -0.00000001 -0.00000001 0.00000001
C 15.66755436 29.60400039 7.49999993 0.00000001 0.00000001 0.00000000
C 16.37971584 28.37049992 7.49999995 -0.00000001 -0.00000001 0.00000000
C 15.66755436 32.07100040 7.49999998 0.00000001 0.00000001 0.00000000
C 16.37971584 30.83749992 7.49999999 -0.00000001 -0.00000001 -0.00000000
C 15.66755436 34.53800041 7.50000000 0.00000001 0.00000001 -0.00000000
C 16.37971584 33.30449993 7.50000000 -0.00000001 -0.00000001 0.00000000
C 15.66755436 37.00500042 7.50000000 0.00000001 0.00000001 -0.00000000
C 16.37971584 35.77149994 7.50000000 -0.00000001 -0.00000001 0.00000000
C 15.66755436 39.47200044 7.50000000 0.00000001 0.00000001 -0.00000000
C 16.37971584 38.23849995 7.50000000 -0.00000001 -0.00000001 0.00000000
C 15.66755436 41.93900045 7.50000000 0.00000001 0.00000001 0.00000000
C 16.37971584 40.70549996 7.50000000 -0.00000001 -0.00000001 -0.00000000
C 15.66755436 44.40600046 7.50000000 0.00000001 0.00000001 -0.00000000
C 16.37971584 43.17249998 7.50000000 -0.00000001 -0.00000001 0.00000000
C 15.66755436 46.87300047 7.50000000 0.00000001 0.00000001 -0.00000000
C 16.37971584 45.63949999 7.50000000 -0.00000001 -0.00000001 -0.00000000
C 15.66755436 49.34000047 7.50000000 0.00000001 0.00000001 0.00000000
C 16.37971584 48.10650000 7.50000000 -0.00000001 -0.00000001 0.00000000
C 15.66755436 51.80700048 7.50000000 0.00000001 0.00000001 -0.00000000
C 16.37971584 50.57350001 7.50000000 -0.00000002 -0.00000001 -0.00000000
C 15.66755435 54.27400050 7.50000000 0.00000001 0.00000001 0.00000000
C 16.37971585 53.04050001 7.50000000 -0.00000001 -0.00000001 -0.00000000
C 17.80403903 -8.63449976 7.50000000 0.00000001 0.00000001 0.00000000
C 18.51620053 -9.86800023 7.50000000 -0.00000001 -0.00000000 0.00000000