72   
1    

1    
  0.0060829050199575  -0.0035119668361570   0.0071178898179101
  -0.3835011172    0.2260137623   -0.0991749900
   0.0319720435   -0.0159137478   -0.0038825473
   0.0007694383   -0.0004977298    0.0002159410
   0.0000072387    0.0000247633    0.0000002061
   0.0008641873   -0.0004017888    0.0002069200
   0.0294704634   -0.0193233376   -0.0037118880
  -0.0134663881   -0.0159458102   -0.0037080233
   0.0069708596    0.0195901299   -0.0038841780
   0.0012007425   -0.0000290287   -0.0006247629
   0.0000158764    0.0000146930   -0.0000014633
   0.0000201831    0.0000222142   -0.0000014437
   0.0006458650   -0.0009759528   -0.0006022037
   0.0000218682   -0.0005117888    0.0002090483
   0.0001011952   -0.0000257191   -0.0006133294
   0.0004589014    0.0002724495    0.0002137924
   0.0000272474    0.0000365587   -0.0000014553
   0.0000057365    0.0000256485    0.0000000000
   0.0000070368    0.0000021886   -0.0000014514
   0.0000062150    0.0000246835    0.0000002087
  -0.0000003715    0.0000148617   -0.0000014583
   0.0000121451    0.0000364808   -0.0000014494
   0.0000066369    0.0000256521    0.0000002035
   0.0000003281    0.0000160605   -0.0000014461
   0.0000114091    0.0000352181   -0.0000014617
   0.0000882899   -0.0003783815    0.0002135621
   0.0000188645    0.0000224512   -0.0000014610
   0.0000057433    0.0000256601    0.0000000000
   0.0000153324    0.0000161324   -0.0000014466
   0.0004108126    0.0001707956    0.0002092841
   0.0001032571   -0.0000221376   -0.0006133253
  -0.0156394260   -0.0195335651   -0.0037935669
   0.0006736569   -0.0010091896   -0.0006174006
   0.0000084525    0.0000017208   -0.0000014563
   0.0000275673    0.0000350846   -0.0000014508
   0.0011567502   -0.0000218520   -0.0006091125
   0.0091541798    0.0231875731   -0.0037990481
   0.1104949703   -0.1176268297    0.0415028235
   0.0017322671    0.0048772322   -0.0020334267
   0.0000631404   -0.0000518018    0.0000062911
   0.0000546332   -0.0000734569    0.0000056157
  -0.0034320648   -0.0038956996   -0.0019994562
   0.1513478914   -0.0372509385    0.0429027291
   0.0638404466   -0.0377433561    0.0422239675
  -0.0050873865   -0.0060078892    0.0032072769
   0.0002997802   -0.0000439012    0.0000462262
  -0.0000088588   -0.0000238595    0.0000000000
   0.0001560661   -0.0002709664    0.0000445610
   0.0023680743    0.0076177471    0.0031613395
   0.0016084027   -0.0038985792   -0.0020125156
   0.0042047139    0.0005953406   -0.0020209803
   0.0002624543    0.0000163091    0.0000460636
  -0.0000075820   -0.0000244062    0.0000000000
  -0.0000077418   -0.0000246585    0.0000000000
   0.0000911396   -0.0002731724    0.0000447352
  -0.0000045368   -0.0000736202    0.0000058197
   0.0000311878   -0.0000474048   -0.0000028273
   0.0000352250   -0.0000037184    0.0000060813
  -0.0000087372   -0.0000242030    0.0000000000
  -0.0000079335   -0.0000244856    0.0000000000
  -0.0000085239   -0.0000239262    0.0000000000
  -0.0000159507   -0.0000519501    0.0000061586
  -0.0000051901   -0.0000252735    0.0000000000
  -0.0000058544   -0.0000263287    0.0000000000
   0.0000136879   -0.0000027672    0.0000057447
  -0.0000092935    0.0000150410    0.0000452217
  -0.0000425674   -0.0000441607    0.0000455589
  -0.0035232107    0.0048556181   -0.0020291965
  -0.0000811721    0.0001488412   -0.0000028350
  -0.0000064464   -0.0000252430    0.0000000000
  -0.0001921714   -0.0000465912   -0.0000028213
  -0.0060119678    0.0005264855   -0.0020036909
   0.0102118880   -0.0060481799    0.0031841894
