1352
Lattice="55.548601680000004 -32.071 0.0 0.0 64.14200026 0.0 0.0 0.0 15.0" Properties=species:S:1:pos:R:3:vel:R:3 Time=0.0 energy=-12605.549766416269 pbc="T T F"
C        0.71216150       1.23349978       7.50000000      -0.00000000      -0.00000000      -0.00000000
C        1.42432318       0.00000024       7.50000000       0.00000000      -0.00000000      -0.00000000
C        0.71216150       3.70049978       7.50000000      -0.00000000      -0.00000000      -0.00000000
C        1.42432318       2.46700024       7.50000000       0.00000000      -0.00000000      -0.00000000
C        0.71216150       6.16749980       7.50000000      -0.00000000      -0.00000000      -0.00000000
C        1.42432318       4.93400025       7.50000000       0.00000000      -0.00000000      -0.00000000
C        0.71216150       8.63449981       7.50000000      -0.00000000      -0.00000000      -0.00000000
C        1.42432318       7.40100027       7.50000000       0.00000000      -0.00000000      -0.00000000
C        0.71216150      11.10149982       7.50000000      -0.00000000      -0.00000000      -0.00000000
C        1.42432318       9.86800027       7.50000000       0.00000000      -0.00000000      -0.00000000
C        0.71216150      13.56849982       7.50000000      -0.00000000      -0.00000000      -0.00000000
C        1.42432318      12.33500028       7.50000000       0.00000000      -0.00000000      -0.00000000
C        0.71216150      16.03549983       7.50000000      -0.00000000      -0.00000000      -0.00000000
C        1.42432318      14.80200030       7.50000000       0.00000000      -0.00000000      -0.00000000
C        0.71216150      18.50249984       7.50000000      -0.00000000      -0.00000000      -0.00000000
C        1.42432318      17.26900031       7.50000000       0.00000000      -0.00000000      -0.00000000
C        0.71216150      20.96949985       7.50000000      -0.00000000      -0.00000000      -0.00000000
C        1.42432318      19.73600032       7.50000000       0.00000000      -0.00000000      -0.00000000
C        0.71216150      23.43649986       7.50000000      -0.00000000      -0.00000000      -0.00000000
C        1.42432318      22.20300033       7.50000000       0.00000000      -0.00000000      -0.00000000
C        0.71216150      25.90349987       7.50000000      -0.00000000      -0.00000000      -0.00000000
C        1.42432318      24.67000034       7.50000000       0.00000000      -0.00000000      -0.00000000
C        0.71216150      28.37049988       7.50000000      -0.00000000      -0.00000000      -0.00000000
C        1.42432318      27.13700035       7.50000000       0.00000000      -0.00000000      -0.00000000
C        0.71216150      30.83749990       7.50000000      -0.00000000      -0.00000000      -0.00000000
C        1.42432318      29.60400036       7.50000000       0.00000000      -0.00000000      -0.00000000
C        0.71216150      33.30449991       7.50000000      -0.00000000      -0.00000000      -0.00000000
C        1.42432318      32.07100037       7.50000000       0.00000000      -0.00000000      -0.00000000
C        0.71216150      35.77149991       7.50000000      -0.00000000      -0.00000000      -0.00000000
C        1.42432318      34.53800038       7.50000000       0.00000000      -0.00000000      -0.00000000
C        0.71216150      38.23849992       7.50000000      -0.00000000      -0.00000000      -0.00000000
C        1.42432318      37.00500039       7.50000000       0.00000000      -0.00000000      -0.00000000
C        0.71216150      40.70549993       7.50000000      -0.00000000      -0.00000000      -0.00000000
C        1.42432318      39.47200040       7.50000000       0.00000000      -0.00000000      -0.00000000
C        0.71216150      43.17249994       7.50000000      -0.00000000      -0.00000000      -0.00000000
C        1.42432318      41.93900041       7.50000000       0.00000000      -0.00000000      -0.00000000
C        0.71216150      45.63949995       7.50000000      -0.00000000      -0.00000000      -0.00000000
C        1.42432318      44.40600042       7.50000000       0.00000000      -0.00000000      -0.00000000
C        0.71216150      48.10649996       7.50000000      -0.00000000      -0.00000000      -0.00000000
C        1.42432318      46.87300043       7.50000000       0.00000000      -0.00000000      -0.00000000
C        0.71216150      50.57349997       7.50000000      -0.00000000      -0.00000000      -0.00000000
C        1.42432318      49.34000044       7.50000000       0.00000000      -0.00000000      -0.00000000
C        0.71216150      53.04049998       7.50000000      -0.00000000      -0.00000000      -0.00000000
C        1.42432318      51.80700044       7.50000000       0.00000000      -0.00000000      -0.00000000
C        0.71216150      55.50749999       7.50000000      -0.00000000      -0.00000000      -0.00000000
C        1.42432318      54.27400045       7.50000000       0.00000000      -0.00000000      -0.00000000
C        0.71216150      57.97450000       7.50000000      -0.00000000      -0.00000000      -0.00000000
C        1.42432318      56.74100046       7.50000000       0.00000000      -0.00000000      -0.00000000
C        0.71216150      60.44150002       7.50000000      -0.00000000      -0.00000000      -0.00000000
C        1.42432318      59.20800048       7.50000000       0.00000000      -0.00000000      -0.00000000
C        0.71216150      62.90850003       7.50000000      -0.00000000      -0.00000000      -0.00000000
C        1.42432318      61.67500049       7.50000000       0.00000000      -0.00000000      -0.00000000
C        2.84864618      -0.00000022       7.50000000       0.00000000       0.00000000      -0.00000000
C        3.56080786      -1.23349976       7.50000000       0.00000000       0.00000000      -0.00000000
C        2.84864618       2.46699979       7.50000000       0.00000000       0.00000000      -0.00000000
C        3.56080786       1.23350025       7.50000000       0.00000000       0.00000000      -0.00000000
C        2.84864618       4.93399980       7.50000000       0.00000000       0.00000000      -0.00000000
C        3.56080786       3.70050025       7.50000000       0.00000000       0.00000000      -0.00000000
C        2.84864618       7.40099981       7.50000000       0.00000000       0.00000000      -0.00000000
C        3.56080786       6.16750027       7.50000000       0.00000000       0.00000000      -0.00000000
C        2.84864618       9.86799982       7.50000000       0.00000000       0.00000000      -0.00000000
C        3.56080786       8.63450028       7.50000000       0.00000000       0.00000000      -0.00000000
C        2.84864618      12.33499983       7.50000000       0.00000000       0.00000000      -0.00000000
C        3.56080786      11.10150029       7.50000000       0.00000000       0.00000000      -0.00000000
C        2.84864618      14.80199984       7.50000000       0.00000000       0.00000000      -0.00000000
C        3.56080786      13.56850029       7.50000000       0.00000000       0.00000000      -0.00000000
C        2.84864618      17.26899984       7.50000000       0.00000000       0.00000000      -0.00000000
C        3.56080786      16.03550031       7.50000000       0.00000000       0.00000000      -0.00000000
C        2.84864618      19.73599985       7.50000000       0.00000000       0.00000000      -0.00000000
C        3.56080786      18.50250032       7.50000000       0.00000000       0.00000000      -0.00000000
C        2.84864618      22.20299986       7.50000000       0.00000000       0.00000000      -0.00000000
C        3.56080786      20.96950033       7.50000000       0.00000000       0.00000000      -0.00000000
C        2.84864618      24.66999987       7.50000000       0.00000000       0.00000000      -0.00000000
C        3.56080786      23.43650034       7.50000000       0.00000000       0.00000000      -0.00000000
C        2.84864618      27.13699988       7.50000000       0.00000000       0.00000000      -0.00000000
C        3.56080786      25.90350035       7.50000000       0.00000000       0.00000000      -0.00000000
C        2.84864618      29.60399989       7.50000000       0.00000000       0.00000000      -0.00000000
C        3.56080786      28.37050036       7.50000000       0.00000000       0.00000000      -0.00000000
C        2.84864618      32.07099991       7.50000000       0.00000000       0.00000000      -0.00000000
C        3.56080786      30.83750037       7.50000000       0.00000000       0.00000000      -0.00000000
C        2.84864618      34.53799992       7.50000000       0.00000000       0.00000000      -0.00000000
C        3.56080786      33.30450038       7.50000000       0.00000000       0.00000000      -0.00000000
C        2.84864618      37.00499992       7.50000000       0.00000000       0.00000000      -0.00000000
C        3.56080786      35.77150039       7.50000000       0.00000000       0.00000000      -0.00000000
C        2.84864618      39.47199993       7.50000000       0.00000000       0.00000000      -0.00000000
C        3.56080786      38.23850040       7.50000000       0.00000000       0.00000000      -0.00000000
C        2.84864618      41.93899994       7.50000000       0.00000000       0.00000000      -0.00000000
C        3.56080786      40.70550041       7.50000000       0.00000000       0.00000000      -0.00000000
C        2.84864618      44.40599995       7.50000000       0.00000000       0.00000000      -0.00000000
C        3.56080786      43.17250042       7.50000000       0.00000000       0.00000000      -0.00000000
C        2.84864618      46.87299996       7.50000000       0.00000000       0.00000000      -0.00000000
C        3.56080786      45.63950043       7.50000000       0.00000000       0.00000000      -0.00000000
C        2.84864618      49.33999997       7.50000000       0.00000000       0.00000000      -0.00000000
C        3.56080786      48.10650044       7.50000000       0.00000000       0.00000000      -0.00000000
C        2.84864618      51.80699998       7.50000000       0.00000000       0.00000000      -0.00000000
C        3.56080786      50.57350045       7.50000000       0.00000000       0.00000000      -0.00000000
C        2.84864618      54.27399999       7.50000000       0.00000000       0.00000000      -0.00000000
C        3.56080786      53.04050046       7.50000000       0.00000000       0.00000000      -0.00000000
C        2.84864618      56.74100000       7.50000000       0.00000000       0.00000000      -0.00000000
C        3.56080786      55.50750046       7.50000000       0.00000000       0.00000000      -0.00000000
C        2.84864618      59.20800001       7.50000000       0.00000000       0.00000000      -0.00000000
C        3.56080786      57.97450047       7.50000000       0.00000000       0.00000000      -0.00000000
C        2.84864618      61.67500002       7.50000000       0.00000000       0.00000000      -0.00000000
C        3.56080786      60.44150048       7.50000000       0.00000000       0.00000000      -0.00000000
C        4.98513086      -1.23350023       7.50000000       0.00000000       0.00000000       0.00000000
C        5.69729254      -2.46699977       7.50000000       0.00000000       0.00000000       0.00000000
C        4.98513086       1.23349979       7.50000000       0.00000000       0.00000000       0.00000000
C        5.69729254       0.00000025       7.50000000       0.00000000       0.00000000       0.00000000
C        4.98513086       3.70049979       7.50000000       0.00000000       0.00000000       0.00000000
C        5.69729254       2.46700025       7.50000000       0.00000000       0.00000000       0.00000000
C        4.98513086       6.16749981       7.50000000       0.00000000       0.00000000       0.00000000
C        5.69729254       4.93400026       7.50000000       0.00000000       0.00000000       0.00000000
C        4.98513086       8.63449981       7.50000000       0.00000000       0.00000000       0.00000000
C        5.69729254       7.40100027       7.50000000       0.00000000       0.00000000       0.00000000
C        4.98513086      11.10149982       7.50000000       0.00000000       0.00000000       0.00000000
C        5.69729254       9.86800028       7.50000000       0.00000000       0.00000000       0.00000000
C        4.98513086      13.56849984       7.50000000       0.00000000       0.00000000       0.00000000
C        5.69729254      12.33500030       7.50000000       0.00000000       0.00000000       0.00000000
C        4.98513086      16.03549985       7.50000000       0.00000000       0.00000000       0.00000000
C        5.69729254      14.80200030       7.50000000       0.00000000       0.00000000       0.00000000
C        4.98513086      18.50249985       7.50000000       0.00000000       0.00000000       0.00000000
C        5.69729254      17.26900032       7.50000000       0.00000000       0.00000000       0.00000000
C        4.98513086      20.96949986       7.50000000       0.00000000       0.00000000       0.00000000
C        5.69729254      19.73600033       7.50000000       0.00000000       0.00000000       0.00000000
C        4.98513086      23.43649987       7.50000000       0.00000000       0.00000000       0.00000000
C        5.69729254      22.20300034       7.50000000       0.00000000       0.00000000       0.00000000
C        4.98513086      25.90349988       7.50000000       0.00000000       0.00000000       0.00000000
C        5.69729254      24.67000035       7.50000000       0.00000000       0.00000000       0.00000000
C        4.98513086      28.37049989       7.50000000       0.00000000       0.00000000       0.00000000
C        5.69729254      27.13700036       7.50000000       0.00000000       0.00000000       0.00000000
C        4.98513086      30.83749990       7.50000000       0.00000000       0.00000000       0.00000000
C        5.69729254      29.60400037       7.50000000       0.00000000       0.00000000       0.00000000
C        4.98513086      33.30449992       7.50000000       0.00000000       0.00000000       0.00000000
C        5.69729254      32.07100038       7.50000000       0.00000000       0.00000000       0.00000000
C        4.98513086      35.77149993       7.50000000       0.00000000       0.00000000       0.00000000
C        5.69729254      34.53800039       7.50000000       0.00000000       0.00000000       0.00000000
C        4.98513086      38.23849994       7.50000000       0.00000000       0.00000000       0.00000000
C        5.69729254      37.00500040       7.50000000       0.00000000       0.00000000       0.00000000
C        4.98513086      40.70549994       7.50000000       0.00000000       0.00000000       0.00000000
C        5.69729254      39.47200041       7.50000000       0.00000000       0.00000000       0.00000000
C        4.98513086      43.17249995       7.50000000       0.00000000       0.00000000       0.00000000
C        5.69729254      41.93900042       7.50000000       0.00000000       0.00000000       0.00000000
C        4.98513086      45.63949996       7.50000000       0.00000000       0.00000000       0.00000000
C        5.69729254      44.40600043       7.50000000       0.00000000       0.00000000       0.00000000
C        4.98513086      48.10649997       7.50000000       0.00000000       0.00000000       0.00000000
C        5.69729254      46.87300044       7.50000000       0.00000000       0.00000000       0.00000000
C        4.98513086      50.57349998       7.50000000       0.00000000       0.00000000       0.00000000
C        5.69729254      49.34000045       7.50000000       0.00000000       0.00000000       0.00000000
C        4.98513086      53.04049999       7.50000000       0.00000000       0.00000000       0.00000000
C        5.69729254      51.80700046       7.50000000       0.00000000       0.00000000       0.00000000
C        4.98513086      55.50750000       7.50000000       0.00000000       0.00000000       0.00000000
C        5.69729254      54.27400047       7.50000000       0.00000000       0.00000000       0.00000000
C        4.98513086      57.97450001       7.50000000       0.00000000       0.00000000       0.00000000
C        5.69729254      56.74100047       7.50000000       0.00000000       0.00000000       0.00000000
C        4.98513086      60.44150002       7.50000000       0.00000000       0.00000000       0.00000000
C        5.69729254      59.20800048       7.50000000       0.00000000       0.00000000       0.00000000
C        7.12161554      -2.46700022       7.50000000       0.00000000       0.00000000       0.00000000
C        7.83377722      -3.70049976       7.50000000      -0.00000000       0.00000000       0.00000000
C        7.12161554      -0.00000021       7.50000000       0.00000000       0.00000000       0.00000000
C        7.83377722      -1.23349975       7.50000000      -0.00000000       0.00000000       0.00000000
C        7.12161554       2.46699980       7.50000000       0.00000000       0.00000000       0.00000000
C        7.83377722       1.23350026       7.50000000      -0.00000000       0.00000000       0.00000000
C        7.12161554       4.93399981       7.50000000       0.00000000       0.00000000       0.00000000
C        7.83377722       3.70050027       7.50000000      -0.00000000       0.00000000       0.00000000
C        7.12161554       7.40099982       7.50000000       0.00000000       0.00000000       0.00000000
C        7.83377722       6.16750028       7.50000000      -0.00000000       0.00000000       0.00000000
C        7.12161554       9.86799983       7.50000000       0.00000000       0.00000000       0.00000000
C        7.83377722       8.63450028       7.50000000      -0.00000000       0.00000000       0.00000000
C        7.12161554      12.33499983       7.50000000       0.00000000       0.00000000       0.00000000
C        7.83377722      11.10150029       7.50000000      -0.00000000       0.00000000       0.00000000
C        7.12161554      14.80199985       7.50000000       0.00000000       0.00000000       0.00000000
C        7.83377722      13.56850031       7.50000000      -0.00000000       0.00000000       0.00000000
C        7.12161554      17.26899985       7.50000000       0.00000000       0.00000000       0.00000000
C        7.83377722      16.03550032       7.50000000      -0.00000000       0.00000000       0.00000000
C        7.12161554      19.73599987       7.50000000       0.00000000       0.00000000       0.00000000
C        7.83377722      18.50250033       7.50000000      -0.00000000       0.00000000       0.00000000
C        7.12161554      22.20299987       7.50000000       0.00000000       0.00000000       0.00000000
C        7.83377722      20.96950034       7.50000000      -0.00000000       0.00000000       0.00000000
C        7.12161554      24.66999988       7.50000000       0.00000000       0.00000000       0.00000000
C        7.83377722      23.43650035       7.50000000      -0.00000000       0.00000000       0.00000000
C        7.12161554      27.13699989       7.50000000       0.00000000       0.00000000       0.00000000
C        7.83377722      25.90350036       7.50000000      -0.00000000       0.00000000       0.00000000
C        7.12161554      29.60399990       7.50000000       0.00000000       0.00000000       0.00000000
C        7.83377722      28.37050037       7.50000000      -0.00000000       0.00000000       0.00000000
C        7.12161554      32.07099992       7.50000000       0.00000000       0.00000000       0.00000000
C        7.83377722      30.83750038       7.50000000      -0.00000000       0.00000000       0.00000000
C        7.12161554      34.53799993       7.50000000       0.00000000       0.00000000       0.00000000
C        7.83377722      33.30450039       7.50000000      -0.00000000       0.00000000       0.00000000
C        7.12161554      37.00499994       7.50000000       0.00000000       0.00000000       0.00000000
C        7.83377722      35.77150040       7.50000000      -0.00000000       0.00000000       0.00000000
C        7.12161554      39.47199995       7.50000000       0.00000000       0.00000000       0.00000000
C        7.83377722      38.23850041       7.50000000      -0.00000000       0.00000000       0.00000000
C        7.12161554      41.93899995       7.50000000       0.00000000       0.00000000       0.00000000
C        7.83377722      40.70550042       7.50000000      -0.00000000       0.00000000       0.00000000
C        7.12161554      44.40599996       7.50000000       0.00000000       0.00000000       0.00000000
C        7.83377722      43.17250043       7.50000000      -0.00000000       0.00000000       0.00000000
C        7.12161554      46.87299997       7.50000000       0.00000000       0.00000000       0.00000000
C        7.83377722      45.63950044       7.50000000      -0.00000000       0.00000000       0.00000000
C        7.12161554      49.33999998       7.50000000       0.00000000       0.00000000       0.00000000
C        7.83377722      48.10650045       7.50000000      -0.00000000       0.00000000       0.00000000
C        7.12161554      51.80699999       7.50000000       0.00000000       0.00000000       0.00000000
C        7.83377722      50.57350046       7.50000000      -0.00000000       0.00000000       0.00000000
C        7.12161554      54.27400000       7.50000000       0.00000000       0.00000000       0.00000000
C        7.83377722      53.04050047       7.50000000      -0.00000000       0.00000000       0.00000000
C        7.12161554      56.74100001       7.50000000       0.00000000       0.00000000       0.00000000
C        7.83377722      55.50750048       7.50000000      -0.00000000       0.00000000       0.00000000
C        7.12161554      59.20800002       7.50000000       0.00000000       0.00000000       0.00000000
C        7.83377722      57.97450049       7.50000000      -0.00000000       0.00000000       0.00000000
C        9.25810022      -3.70050022       7.50000000      -0.00000000      -0.00000000      -0.00000000
C        9.97026190      -4.93399977       7.50000000       0.00000000      -0.00000000      -0.00000000
C        9.25810022      -1.23350022       7.50000000      -0.00000000      -0.00000000      -0.00000000
C        9.97026190      -2.46699976       7.50000000       0.00000000      -0.00000000      -0.00000000
C        9.25810022       1.23349979       7.50000000      -0.00000000      -0.00000000      -0.00000000
C        9.97026190       0.00000026       7.50000000       0.00000000      -0.00000000      -0.00000000
C        9.25810022       3.70049980       7.50000000      -0.00000000      -0.00000000      -0.00000000
C        9.97026190       2.46700026       7.50000000       0.00000000      -0.00000000      -0.00000000
C        9.25810022       6.16749982       7.50000000      -0.00000000      -0.00000000      -0.00000000
C        9.97026190       4.93400027       7.50000000       0.00000000      -0.00000000      -0.00000000
C        9.25810022       8.63449983       7.50000001      -0.00000000      -0.00000000      -0.00000000
C        9.97026190       7.40100029       7.50000001       0.00000000      -0.00000000      -0.00000000
C        9.25810022      11.10149984       7.50000001      -0.00000000      -0.00000000      -0.00000000
C        9.97026190       9.86800029       7.50000001       0.00000000      -0.00000000      -0.00000000
C        9.25810022      13.56849984       7.50000002      -0.00000000      -0.00000000      -0.00000000
C        9.97026190      12.33500030       7.50000002       0.00000000      -0.00000000      -0.00000000
C        9.25810022      16.03549985       7.50000003      -0.00000000      -0.00000000      -0.00000000
C        9.97026190      14.80200031       7.50000003       0.00000000      -0.00000000      -0.00000000
C        9.25810022      18.50249986       7.50000003      -0.00000000      -0.00000000      -0.00000000
C        9.97026190      17.26900033       7.50000003       0.00000000      -0.00000000      -0.00000000
C        9.25810022      20.96949987       7.50000002      -0.00000000      -0.00000000      -0.00000000
C        9.97026190      19.73600033       7.50000002       0.00000000      -0.00000000      -0.00000000
C        9.25810022      23.43649988       7.50000001      -0.00000000      -0.00000000      -0.00000000
C        9.97026190      22.20300035       7.50000001       0.00000000      -0.00000000      -0.00000000
C        9.25810022      25.90349989       7.50000001      -0.00000000      -0.00000000      -0.00000000
C        9.97026190      24.67000036       7.50000001       0.00000000      -0.00000000      -0.00000000
C        9.25810022      28.37049990       7.50000000      -0.00000000      -0.00000000      -0.00000000
C        9.97026190      27.13700037       7.50000000       0.00000000      -0.00000000      -0.00000000
C        9.25810022      30.83749991       7.50000000      -0.00000000      -0.00000000      -0.00000000
C        9.97026190      29.60400038       7.50000000       0.00000000      -0.00000000      -0.00000000
C        9.25810022      33.30449993       7.50000000      -0.00000000      -0.00000000      -0.00000000
C        9.97026190      32.07100039       7.50000000       0.00000000      -0.00000000      -0.00000000
C        9.25810022      35.77149994       7.50000000      -0.00000000      -0.00000000      -0.00000000
C        9.97026190      34.53800040       7.50000000       0.00000000      -0.00000000      -0.00000000
C        9.25810022      38.23849995       7.50000000      -0.00000000      -0.00000000      -0.00000000
C        9.97026190      37.00500041       7.50000000       0.00000000      -0.00000000      -0.00000000
C        9.25810022      40.70549996       7.50000000      -0.00000000      -0.00000000      -0.00000000
C        9.97026190      39.47200042       7.50000000       0.00000000      -0.00000000      -0.00000000
C        9.25810022      43.17249997       7.50000000      -0.00000000      -0.00000000      -0.00000000
C        9.97026190      41.93900043       7.50000000       0.00000000      -0.00000000      -0.00000000
C        9.25810022      45.63949997       7.50000000      -0.00000000      -0.00000000      -0.00000000
C        9.97026190      44.40600044       7.50000000       0.00000000      -0.00000000      -0.00000000
C        9.25810022      48.10649998       7.50000000      -0.00000000      -0.00000000      -0.00000000
C        9.97026190      46.87300045       7.50000000       0.00000000      -0.00000000      -0.00000000
C        9.25810022      50.57349999       7.50000000      -0.00000000      -0.00000000      -0.00000000
C        9.97026190      49.34000046       7.50000000       0.00000000      -0.00000000      -0.00000000
C        9.25810022      53.04050000       7.50000000      -0.00000000      -0.00000000      -0.00000000
C        9.97026190      51.80700047       7.50000000       0.00000000      -0.00000000      -0.00000000
C        9.25810022      55.50750001       7.50000000      -0.00000000      -0.00000000      -0.00000000
C        9.97026190      54.27400048       7.50000000       0.00000000      -0.00000000      -0.00000000
C        9.25810022      57.97450002       7.50000000      -0.00000000      -0.00000000      -0.00000000
C        9.97026190      56.74100049       7.50000000       0.00000000      -0.00000000      -0.00000000
C       11.39458490      -4.93400023       7.50000000       0.00000000       0.00000000      -0.00000000
C       12.10674658      -6.16749977       7.50000000       0.00000000       0.00000000      -0.00000000
C       11.39458490      -2.46700022       7.50000000       0.00000000       0.00000000      -0.00000000
C       12.10674658      -3.70049976       7.50000000       0.00000000       0.00000000      -0.00000000
C       11.39458490      -0.00000021       7.50000000       0.00000000       0.00000000      -0.00000000
C       12.10674658      -1.23349975       7.50000000       0.00000000       0.00000000      -0.00000000
C       11.39458490       2.46699980       7.50000000       0.00000000       0.00000000      -0.00000000
C       12.10674658       1.23350026       7.50000000       0.00000000       0.00000000      -0.00000000
C       11.39458490       4.93399981       7.50000001       0.00000000       0.00000000      -0.00000000
C       12.10674658       3.70050027       7.50000001       0.00000000       0.00000000      -0.00000000
C       11.39458490       7.40099982       7.50000002       0.00000000       0.00000000      -0.00000000
C       12.10674658       6.16750028       7.50000002       0.00000000       0.00000000      -0.00000000
C       11.39458490       9.86799984       7.50000004       0.00000000       0.00000000      -0.00000000
C       12.10674658       8.63450030       7.50000004       0.00000000       0.00000000      -0.00000000
C       11.39458490      12.33499985       7.50000008       0.00000000       0.00000000      -0.00000000
C       12.10674658      11.10150031       7.50000008       0.00000000       0.00000000      -0.00000000
C       11.39458490      14.80199986       7.50000011       0.00000000       0.00000000      -0.00000000
C       12.10674658      13.56850031       7.50000011       0.00000000       0.00000000      -0.00000000
C       11.39458490      17.26899986       7.50000012       0.00000000       0.00000000      -0.00000000
C       12.10674658      16.03550033       7.50000012       0.00000000       0.00000000      -0.00000000
C       11.39458490      19.73599987       7.50000011       0.00000000       0.00000000      -0.00000000
C       12.10674658      18.50250034       7.50000011       0.00000000       0.00000000      -0.00000000
C       11.39458490      22.20299988       7.50000008       0.00000000       0.00000000      -0.00000000
C       12.10674658      20.96950035       7.50000008       0.00000000       0.00000000      -0.00000000