2
Time=0.00000000 pbc="T T F" Lattice="2.13648468 -1.23350000 0.00000000 0.00000000 2.46700001 0.00000000 0.00000000 0.00000000 15.00000000" energy=-18.64726353 virial="0.33120863 0.00000029 0.00000000 0.00000029 0.33124208 0.00000000 0.00000000 0.00000000 0.00000000" stress="0.00418930 0.00000000 0.00000000 0.00000000 0.00418972 0.00000000 0.00000000 0.00000000 0.00000000" Properties=species:S:1:pos:R:3
C 0.71216150 1.23349977 7.50000000
C 1.42432318 0.00000023 7.50000000
